<?xml version="1.0"?>
<VTKFile type="UnstructuredGrid" version="0.1" byte_order="LittleEndian">
<UnstructuredGrid>
<Piece NumberOfPoints="67" NumberOfCells="67">
<PointData Vectors="Particles">
<DataArray type="Float32" Name="Mass" NumberOfComponents="1" >
1.41117e-08 1.41117e-08 1.41117e-08 1.41117e-08 1.41117e-08 1.41117e-08 1.41117e-08 1.41117e-08 1.41117e-08 1.41117e-08 1.41117e-08 1.41117e-08 1.41117e-08 1.41117e-08 1.41117e-08 1.41117e-08 1.41117e-08 1.41117e-08 1.41117e-08 1.41117e-08 1.41117e-08 1.41117e-08 1.41117e-08 1.41117e-08 1.41117e-08 1.41117e-08 1.41117e-08 1.41117e-08 1.41117e-08 1.41117e-08 1.41117e-08 1.41117e-08 1.41117e-08 1.41117e-08 1.41117e-08 1.41117e-08 1.41117e-08 1.41117e-08 1.41117e-08 1.41117e-08 1.41117e-08 1.41117e-08 1.41117e-08 1.41117e-08 1.41117e-08 1.41117e-08 1.41117e-08 1.41117e-08 1.41117e-08 1.41117e-08 1.41117e-08 1.41117e-08 1.41117e-08 1.41117e-08 1.41117e-08 1.41117e-08 1.41117e-08 1.41117e-08 1.41117e-08 1.41117e-08 1.41117e-08 1.41117e-08 1.41117e-08 1.41117e-08 1.41117e-08 1.41117e-08 1.41117e-08 
</DataArray>
<DataArray type="Float32" Name="Radius" NumberOfComponents="1" >
0.00015 0.00015 0.00015 0.00015 0.00015 0.00015 0.00015 0.00015 0.00015 0.00015 0.00015 0.00015 0.00015 0.00015 0.00015 0.00015 0.00015 0.00015 0.00015 0.00015 0.00015 0.00015 0.00015 0.00015 0.00015 0.00015 0.00015 0.00015 0.00015 0.00015 0.00015 0.00015 0.00015 0.00015 0.00015 0.00015 0.00015 0.00015 0.00015 0.00015 0.00015 0.00015 0.00015 0.00015 0.00015 0.00015 0.00015 0.00015 0.00015 0.00015 0.00015 0.00015 0.00015 0.00015 0.00015 0.00015 0.00015 0.00015 0.00015 0.00015 0.00015 0.00015 0.00015 0.00015 0.00015 0.00015 0.00015 
</DataArray>
<DataArray type="Float32" Name="Velocity" NumberOfComponents="3" >
-0.0203171 -0.000248351 -0.0371843 -0.0206127 -0.000267608 -0.0374832 -0.0207476 -0.000270935 -0.0376661 -0.0207568 -0.000273227 -0.0376692 -0.0211965 -0.000269261 -0.0384636 -0.0214261 -0.000265717 -0.0388174 -0.019433 -0.000278277 -0.0352179 -0.0188573 -0.000312203 -0.0338235 -0.0219454 -0.00025005 -0.0393819 -0.021301 -0.000305165 -0.0380607 -0.0214117 -0.000299028 -0.0382298 -0.0180292 -0.000321743 -0.0322028 -0.0170271 -0.000339169 -0.030452 -0.0221509 -0.00024308 -0.0394235 -0.0201854 -0.000337411 -0.0356523 -0.0189389 -0.000326232 -0.0334006 -0.0213958 -0.00031794 -0.0375784 -0.0222698 -0.000262057 -0.0391673 -0.0222898 -0.000257266 -0.0391761 -0.0210389 -0.000337986 -0.0367398 -0.0216524 -0.000307416 -0.0378649 -0.0180932 -0.00031779 -0.0317017 -0.0195955 -0.00034611 -0.0340448 -0.0211816 -0.000344232 -0.0367413 -0.0222067 -0.000294272 -0.0387652 -0.0190687 -0.0003469 -0.0330469 -0.0155374 -0.000294793 -0.0275065 -0.0145949 -0.000290349 -0.0259372 -0.0130726 -0.000380446 -0.0236876 -0.0205082 -0.000386073 -0.0351616 -0.0184829 -0.000382683 -0.0317056 -0.0170337 -0.000348864 -0.0294332 -0.0209886 -0.000396067 -0.0358497 -0.0213063 -0.000393204 -0.0364579 -0.0208504 -0.000396276 -0.0355953 -0.0189551 -0.000409269 -0.0323007 -0.0145331 -0.000323192 -0.0255041 -0.0202712 -0.000414589 -0.0344842 -0.0172462 -0.000392246 -0.0294724 -0.0193652 -0.00042233 -0.032895 -0.0172886 -0.000398086 -0.029506 -0.0144027 -0.000332436 -0.0252226 -0.0195256 -0.000426217 -0.0330628 -0.0216641 -0.000391727 -0.0370127 -0.0131436 -0.000324776 -0.0232256 -0.0128806 -0.000335365 -0.0227074 -0.0187244 -0.000437711 -0.0315538 -0.0124127 -0.000336616 -0.021995 -0.0138682 -0.000385517 -0.0239902 -0.0171788 -0.000429959 -0.0289091 -0.0094253 -0.000513222 -0.0176746 -0.0180095 -0.000430305 -0.0301056 -0.0176942 -0.000431894 -0.0295655 -0.0134873 -0.000435987 -0.023035 -0.0109291 -0.000370584 -0.0194142 -0.0148499 -0.000434397 -0.0248606 -0.015865 -0.000411198 -0.0262828 -0.00981573 -0.000414045 -0.0172375 -0.00974798 -0.00041739 -0.0171048 -0.0114984 -0.000486048 -0.0195708 -0.0073593 -0.000454975 -0.0138829 -0.00980325 -0.000461764 -0.0170111 -0.0076073 -0.000388725 -0.0137917 -0.00483391 -0.000502957 -0.00971718 0 0 0 0 0 0 0 0 0 
</DataArray>
<DataArray type="Float32" Name="Force" NumberOfComponents="3" >
4.34725e-11 6.67008e-11 1.48112e-10 3.71254e-11 6.58825e-11 1.41803e-10 3.34478e-11 6.64745e-11 1.40408e-10 3.41323e-11 6.53934e-11 1.3918e-10 3.00795e-11 6.23211e-11 1.34999e-10 2.73667e-11 5.96508e-11 1.34123e-10 4.68616e-11 6.72965e-11 1.41449e-10 4.43721e-11 6.53921e-11 1.30371e-10 3.63094e-11 5.29949e-11 1.1539e-10 4.72871e-11 5.3729e-11 1.13561e-10 4.63925e-11 5.42972e-11 1.12305e-10 4.72477e-11 6.41803e-11 1.26399e-10 5.05777e-11 6.17013e-11 1.2312e-10 3.49753e-11 5.47683e-11 1.04211e-10 6.36838e-11 5.78119e-11 1.12272e-10 6.94074e-11 5.7639e-11 1.15708e-10 4.88608e-11 5.95033e-11 1.05896e-10 2.45085e-11 6.31288e-11 9.61994e-11 2.52707e-11 6.67898e-11 9.59177e-11 5.4424e-11 6.2758e-11 1.08002e-10 3.94356e-11 6.74678e-11 1.00139e-10 7.67077e-11 5.71458e-11 1.09443e-10 7.00401e-11 6.42955e-11 1.08625e-10 4.5843e-11 6.71292e-11 9.69235e-11 1.77286e-11 6.53399e-11 8.2792e-11 7.3339e-11 6.56965e-11 1.08318e-10 6.7052e-11 6.20776e-11 1.05979e-10 6.16518e-11 6.4937e-11 1.00199e-10 3.04403e-11 7.20584e-11 9.73514e-11 3.87141e-11 6.72587e-11 8.2609e-11 6.4518e-11 6.62488e-11 9.5945e-11 7.25809e-11 6.02155e-11 1.02994e-10 1.55235e-11 6.49172e-11 6.60062e-11 1.04542e-11 6.47436e-11 6.72062e-11 1.92605e-11 6.71416e-11 6.80706e-11 5.49604e-11 7.13706e-11 8.79653e-11 6.84994e-11 5.63129e-11 9.6826e-11 2.53516e-11 6.62334e-11 7.11043e-11 6.6022e-11 6.36515e-11 9.76446e-11 4.45207e-11 6.91995e-11 8.20094e-11 6.48572e-11 6.35491e-11 9.67527e-11 6.71191e-11 5.5638e-11 9.64775e-11 3.42587e-11 7.04424e-11 7.44408e-11 -1.57548e-11 6.2843e-11 5.28066e-11 5.49736e-11 6.23646e-11 9.64438e-11 5.24856e-11 6.22837e-11 9.60808e-11 3.44551e-11 6.99888e-11 6.86786e-11 4.78424e-11 6.4196e-11 9.44478e-11 5.34472e-11 5.19401e-11 9.50706e-11 5.07159e-11 6.90856e-11 8.7823e-11 -2.59553e-12 6.62195e-11 6.88131e-11 3.3893e-11 7.5226e-11 7.06747e-11 3.46727e-11 7.31904e-11 7.38567e-11 5.39075e-11 5.7678e-11 9.42914e-11 3.20202e-11 6.80966e-11 8.95129e-11 4.93893e-11 6.98533e-11 9.01172e-11 4.10199e-11 7.74974e-11 8.62531e-11 2.37896e-11 6.53455e-11 8.30581e-11 2.37929e-11 6.49105e-11 8.20172e-11 4.57646e-11 6.16171e-11 8.78195e-11 -4.722e-12 6.29364e-11 6.61415e-11 3.58399e-11 5.92601e-11 8.26078e-11 2.05273e-11 6.12303e-11 7.89889e-11 -1.4717e-11 4.61406e-11 5.46218e-11 1.0801e-11 5.31781e-11 5.66356e-11 -2.02627e-12 4.08394e-11 3.01372e-11 -2.00563e-11 3.07864e-11 2.71535e-11 
</DataArray>
<DataArray type="Float32" Name="Active" NumberOfComponents="1" >
0 0 0 0 0 0 0 0 0 0 0 0 0 0 0 0 0 0 0 0 0 0 0 0 0 0 0 0 0 0 0 0 0 0 0 0 0 0 0 0 0 0 0 0 0 0 0 0 0 0 0 0 0 0 0 0 0 0 0 0 0 0 0 0 0 0 0 
</DataArray>
</PointData>
<CellData /> 
<Cells>
<DataArray type="Int32" Name="connectivity" format="ascii">
0 1 2 3 4 5 6 7 8 9 10 11 12 13 14 15 16 17 18 19 20 21 22 23 24 25 26 27 28 29 30 31 32 33 34 35 36 37 38 39 40 41 42 43 44 45 46 47 48 49 50 51 52 53 54 55 56 57 58 59 60 61 62 63 64 65 66 </DataArray>
<DataArray type="Int32" Name="offsets" format="ascii">
1 2 3 4 5 6 7 8 9 10 11 12 13 14 15 16 17 18 19 20 21 22 23 24 25 26 27 28 29 30 31 32 33 34 35 36 37 38 39 40 41 42 43 44 45 46 47 48 49 50 51 52 53 54 55 56 57 58 59 60 61 62 63 64 65 66 67 </DataArray>
<DataArray type="UInt8" Name="types" format="ascii">
1 1 1 1 1 1 1 1 1 1 1 1 1 1 1 1 1 1 1 1 1 1 1 1 1 1 1 1 1 1 1 1 1 1 1 1 1 1 1 1 1 1 1 1 1 1 1 1 1 1 1 1 1 1 1 1 1 1 1 1 1 1 1 1 1 1 1 </DataArray>
</Cells>
<Points>
<DataArray type="Float32" Name="Position" NumberOfComponents="3" >
-0.0213575 0.00157445 -0.0225781 -0.0215716 0.00161005 -0.0224278 -0.0216444 0.00158013 -0.0223971 -0.0216524 0.00158714 -0.0223801 -0.0217188 0.00132551 -0.022337 -0.0218191 0.0011962 -0.0222664 -0.021473 0.00236827 -0.0224055 -0.0217043 0.00279192 -0.0222843 -0.0222738 0.00101743 -0.0220384 -0.0222604 0.00169693 -0.0219935 -0.0223147 0.00163881 -0.0219801 -0.0217135 0.00317651 -0.0222693 -0.0215896 0.00349528 -0.0223056 -0.0226142 0.00107659 -0.0218567 -0.0224549 0.00256278 -0.0218718 -0.0223196 0.00310793 -0.0219287 -0.022831 0.00194614 -0.0216381 -0.0230088 0.00123505 -0.0215707 -0.0230632 0.00121261 -0.0215942 -0.0229224 0.00227388 -0.021592 -0.0230529 0.00179552 -0.0215754 -0.0224872 0.00351677 -0.021795 -0.022884 0.00299985 -0.0215693 -0.0231675 0.00223405 -0.0214667 -0.0232588 0.00136188 -0.0214109 -0.0229029 0.00325534 -0.0215469 -0.0222109 0.00423294 -0.0219254 -0.022183 0.0044919 -0.0219308 -0.0216625 0.00465156 -0.0222179 -0.0234353 0.00263466 -0.0212562 -0.0231661 0.00352141 -0.0213746 -0.0229107 0.00395408 -0.0215709 -0.0236913 0.00238474 -0.0211096 -0.0237338 0.00216047 -0.0210978 -0.0236929 0.00245619 -0.021131 -0.0234405 0.00337685 -0.0212515 -0.0225016 0.00460048 -0.0217008 -0.0237109 0.00275152 -0.0210743 -0.0232034 0.00393649 -0.0213678 -0.0235974 0.00320339 -0.0211314 -0.023237 0.00392789 -0.0213352 -0.0225561 0.00464497 -0.0216646 -0.0237739 0.00311888 -0.0210543 -0.0240244 0.0017747 -0.0209839 -0.0223792 0.00489948 -0.0217759 -0.0224575 0.00498044 -0.0217365 -0.0238462 0.00345274 -0.0209588 -0.0223388 0.00506159 -0.0217804 -0.0228931 0.00483474 -0.0214814 -0.0236714 0.00398832 -0.0210504 -0.0214191 0.00533716 -0.022305 -0.0241013 0.00367408 -0.0208482 -0.0240451 0.00378856 -0.0208368 -0.0232542 0.00496755 -0.0212502 -0.0223805 0.00541284 -0.0217544 -0.023741 0.00465776 -0.0210008 -0.0241282 0.00437553 -0.0207766 -0.0228604 0.00571823 -0.0214425 -0.0228934 0.00573485 -0.0214187 -0.0235709 0.00542913 -0.0210595 -0.0217241 0.00589134 -0.022085 -0.0232276 0.00574786 -0.0212132 -0.0223269 0.0060403 -0.0217308 -0.0214306 0.00625734 -0.0222436 -0.0223402 0.00659489 -0.0216888 -0.0222525 0.00678952 -0.0217407 -0.0213989 0.00673303 -0.0222378 
</DataArray>
</Points>
</Piece>
</UnstructuredGrid>
</VTKFile>
