<?xml version="1.0"?>
<VTKFile type="UnstructuredGrid" version="0.1" byte_order="LittleEndian">
<UnstructuredGrid>
<Piece NumberOfPoints="35" NumberOfCells="35">
<PointData Vectors="Particles">
<DataArray type="Float32" Name="Mass" NumberOfComponents="1" >
1.41117e-08 1.41117e-08 1.41117e-08 1.41117e-08 1.41117e-08 1.41117e-08 1.41117e-08 1.41117e-08 1.41117e-08 1.41117e-08 1.41117e-08 1.41117e-08 1.41117e-08 1.41117e-08 1.41117e-08 1.41117e-08 1.41117e-08 1.41117e-08 1.41117e-08 1.41117e-08 1.41117e-08 1.41117e-08 1.41117e-08 1.41117e-08 1.41117e-08 1.41117e-08 1.41117e-08 1.41117e-08 1.41117e-08 1.41117e-08 1.41117e-08 1.41117e-08 1.41117e-08 1.41117e-08 1.41117e-08 
</DataArray>
<DataArray type="Float32" Name="Radius" NumberOfComponents="1" >
0.00015 0.00015 0.00015 0.00015 0.00015 0.00015 0.00015 0.00015 0.00015 0.00015 0.00015 0.00015 0.00015 0.00015 0.00015 0.00015 0.00015 0.00015 0.00015 0.00015 0.00015 0.00015 0.00015 0.00015 0.00015 0.00015 0.00015 0.00015 0.00015 0.00015 0.00015 0.00015 0.00015 0.00015 0.00015 
</DataArray>
<DataArray type="Float32" Name="Velocity" NumberOfComponents="3" >
-0.0126153 0.000180395 -0.0387431 -0.0151871 0.00026583 -0.0364358 -0.0151542 -0.00022462 -0.0371162 -0.0121027 0.000523741 -0.027297 -0.0146489 -4.07368e-05 -0.0386765 -0.0151438 6.80487e-05 -0.0380945 -0.0117341 0.000501466 -0.0265473 -0.0145678 3.51292e-05 -0.039074 -0.0139452 6.68198e-05 -0.0395653 -0.0129864 -0.000430434 -0.0292089 -0.0128401 0.000501458 -0.0287565 -0.0157923 0.00020841 -0.0374298 -0.0146675 2.34916e-06 -0.0399018 -0.0151516 -0.000396196 -0.0341311 -0.0150207 -3.29249e-05 -0.0400745 -0.0136723 -0.000398979 -0.030586 -0.0167207 7.39508e-05 -0.0376394 -0.0160783 -0.00018416 -0.0382755 -0.0154722 0.00036101 -0.0347138 -0.0156363 -2.11818e-05 -0.039987 -0.0158087 -1.19151e-05 -0.0399754 -0.0161559 0.000199619 -0.0359922 -0.0161463 0.000243944 -0.0369142 -0.0162874 -7.33067e-05 -0.0397529 -0.0162702 0.00020986 -0.0364074 -0.0165114 -0.000136559 -0.0389102 -0.0162655 0.000218111 -0.0364539 -0.0167854 -0.000118267 -0.0383591 -0.0166847 -0.000145483 -0.0382157 -0.0168274 -6.99079e-05 -0.0392526 -0.0167854 -2.54393e-06 -0.0398143 -0.0163973 0.0002043 -0.037611 -0.0162384 -0.000224536 -0.0366359 -0.0166553 0.000125138 -0.0385173 -0.0166843 5.45318e-06 -0.039915 
</DataArray>
<DataArray type="Float32" Name="Force" NumberOfComponents="3" >
-5.33897e-10 -2.73873e-11 -4.92077e-11 -2.53305e-10 2.02931e-11 1.94673e-10 -2.94455e-10 -2.13725e-11 1.59465e-10 1.61538e-10 -4.7465e-12 6.1676e-10 -4.35778e-10 2.61458e-11 2.66295e-11 -3.62345e-10 2.53198e-11 9.41024e-11 1.80508e-10 -6.63155e-12 6.38636e-10 -4.54305e-10 -2.55136e-11 1.02386e-11 -5.07539e-10 -1.84765e-11 -3.188e-11 1.19152e-10 1.22766e-11 5.78529e-10 1.41249e-10 -1.69215e-12 5.84936e-10 -2.37454e-10 1.09458e-11 2.09362e-10 -4.76374e-10 -6.29477e-12 -1.41259e-11 -3.04664e-11 6.46577e-12 4.1225e-10 -4.55109e-10 4.64016e-12 7.27243e-12 9.79799e-11 1.21498e-11 5.55845e-10 -6.06928e-11 2.19162e-12 3.91272e-10 -2.45521e-10 -8.45417e-12 2.03615e-10 -4.4895e-11 1.84667e-12 3.90495e-10 -3.96843e-10 -8.97566e-12 6.24306e-11 -3.78823e-10 7.19736e-12 8.03325e-11 -1.0497e-11 1.42728e-12 4.3968e-10 -1.22373e-10 5.66838e-12 3.18013e-10 -3.08003e-10 -6.77264e-12 1.47722e-10 -3.57333e-11 3.51663e-12 4.0515e-10 -2.1882e-10 -3.28358e-12 2.33691e-10 -4.12093e-11 3.42926e-12 4.00516e-10 -1.23459e-10 3.99834e-12 3.27809e-10 -1.29639e-10 3.8509e-12 3.21166e-10 -1.98144e-10 1.86803e-12 2.52374e-10 -2.47227e-10 4.37913e-12 2.05466e-10 -1.34892e-10 6.11397e-12 3.07627e-10 -6.50768e-11 5.35858e-12 3.84613e-10 -1.69593e-10 6.83105e-12 2.74638e-10 -2.68105e-10 5.99745e-12 1.84794e-10 
</DataArray>
<DataArray type="Float32" Name="Active" NumberOfComponents="1" >
1 1 1 1 1 1 1 1 1 1 1 1 1 1 1 1 1 1 1 1 1 1 1 1 1 1 1 1 1 1 1 1 1 1 1 
</DataArray>
</PointData>
<CellData /> 
<Cells>
<DataArray type="Int32" Name="connectivity" format="ascii">
0 1 2 3 4 5 6 7 8 9 10 11 12 13 14 15 16 17 18 19 20 21 22 23 24 25 26 27 28 29 30 31 32 33 34 </DataArray>
<DataArray type="Int32" Name="offsets" format="ascii">
1 2 3 4 5 6 7 8 9 10 11 12 13 14 15 16 17 18 19 20 21 22 23 24 25 26 27 28 29 30 31 32 33 34 35 </DataArray>
<DataArray type="UInt8" Name="types" format="ascii">
1 1 1 1 1 1 1 1 1 1 1 1 1 1 1 1 1 1 1 1 1 1 1 1 1 1 1 1 1 1 1 1 1 1 1 </DataArray>
</Cells>
<Points>
<DataArray type="Float32" Name="Position" NumberOfComponents="3" >
-0.00871725 -0.00101141 0.0006722 -0.00883156 0.00231893 -0.00309728 -0.00887529 -0.00211336 -0.0028693 -0.00885656 0.00260529 -0.00756763 -0.00900579 0.00150026 -0.00164108 -0.00904118 0.00176996 -0.00247489 -0.00900101 0.00248321 -0.00819341 -0.00906852 -0.00121804 -0.00156807 -0.00906994 -0.000707341 -0.000832111 -0.00912604 -0.00240384 -0.00769372 -0.00915044 0.00246151 -0.00778169 -0.0093117 0.00186763 -0.00412458 -0.00928332 -0.000256954 -0.0017056 -0.00939567 -0.00220444 -0.00631114 -0.00938675 0.000333064 -0.0021599 -0.00939754 -0.00223175 -0.00786645 -0.0105253 0.000455624 -0.00800962 -0.00954032 -0.0015263 -0.00448892 -0.00954937 0.00213291 -0.00627512 -0.00954415 -0.000539988 -0.0030598 -0.00959506 0.000540022 -0.00332909 -0.0104114 0.00113651 -0.00829594 -0.00974938 0.00167158 -0.00592606 -0.00975358 -0.000793881 -0.00433429 -0.0103161 0.00123537 -0.00785745 -0.00987614 -0.0010378 -0.00536392 -0.0102646 0.00128677 -0.00771471 -0.0102995 -0.000750624 -0.00705593 -0.010186 -0.000925125 -0.00678524 -0.0101627 -0.000466846 -0.00607987 -0.0100969 0.00016787 -0.00550986 -0.00990593 0.00143408 -0.00610249 -0.0100991 -0.00135147 -0.00720992 -0.0100603 0.00102663 -0.00607993 -0.010021 0.000306736 -0.00516959 
</DataArray>
</Points>
</Piece>
</UnstructuredGrid>
</VTKFile>
