<?xml version="1.0"?>
<VTKFile type="UnstructuredGrid" version="0.1" byte_order="LittleEndian">
<UnstructuredGrid>
<Piece NumberOfPoints="6" NumberOfCells="6">
<PointData Vectors="Particles">
<DataArray type="Float32" Name="Mass" NumberOfComponents="1" >
1.41117e-08 1.41117e-08 1.41117e-08 1.41117e-08 1.41117e-08 1.41117e-08 
</DataArray>
<DataArray type="Float32" Name="Radius" NumberOfComponents="1" >
0.00015 0.00015 0.00015 0.00015 0.00015 0.00015 
</DataArray>
<DataArray type="Float32" Name="Velocity" NumberOfComponents="3" >
0 0 0 0.00294222 2.13985e-05 -0.00458074 0.0033909 -3.37425e-05 -0.00587407 0 0 0 0.00354288 -2.36084e-05 -0.00604182 0.0028447 5.92595e-06 -0.00442752 
</DataArray>
<DataArray type="Float32" Name="Force" NumberOfComponents="3" >
-1.56411e-10 -3.71394e-12 3.75194e-10 -2.19395e-13 4.08763e-12 -1.92597e-12 -4.17369e-12 -1.01504e-12 1.23003e-12 -1.62786e-13 8.49825e-13 -1.05198e-12 -8.96103e-12 -3.07165e-12 7.65042e-12 3.47427e-13 3.53404e-12 -1.42815e-12 
</DataArray>
<DataArray type="Float32" Name="Active" NumberOfComponents="1" >
0 1 1 0 1 1 
</DataArray>
</PointData>
<CellData /> 
<Cells>
<DataArray type="Int32" Name="connectivity" format="ascii">
0 1 2 3 4 5 </DataArray>
<DataArray type="Int32" Name="offsets" format="ascii">
1 2 3 4 5 6 </DataArray>
<DataArray type="UInt8" Name="types" format="ascii">
1 1 1 1 1 1 </DataArray>
</Cells>
<Points>
<DataArray type="Float32" Name="Position" NumberOfComponents="3" >
0.0111411 0.00151719 -0.0148618 0.012857 0.00700468 -0.0075772 0.016977 0.00681636 -0.0148685 0.012091 0.00450592 -0.0137111 0.017401 0.00701055 -0.0140591 0.012395 0.00689916 -0.00761045 
</DataArray>
</Points>
</Piece>
</UnstructuredGrid>
</VTKFile>
