<?xml version="1.0"?>
<VTKFile type="UnstructuredGrid" version="0.1" byte_order="LittleEndian">
<UnstructuredGrid>
<Piece NumberOfPoints="257" NumberOfCells="257">
<PointData Vectors="Particles">
<DataArray type="Float32" Name="Mass" NumberOfComponents="1" >
1.41117e-08 1.41117e-08 1.41117e-08 1.41117e-08 1.41117e-08 1.41117e-08 1.41117e-08 1.41117e-08 1.41117e-08 1.41117e-08 1.41117e-08 1.41117e-08 1.41117e-08 1.41117e-08 1.41117e-08 1.41117e-08 1.41117e-08 1.41117e-08 1.41117e-08 1.41117e-08 1.41117e-08 1.41117e-08 1.41117e-08 1.41117e-08 1.41117e-08 1.41117e-08 1.41117e-08 1.41117e-08 1.41117e-08 1.41117e-08 1.41117e-08 1.41117e-08 1.41117e-08 1.41117e-08 1.41117e-08 1.41117e-08 1.41117e-08 1.41117e-08 1.41117e-08 1.41117e-08 1.41117e-08 1.41117e-08 1.41117e-08 1.41117e-08 1.41117e-08 1.41117e-08 1.41117e-08 1.41117e-08 1.41117e-08 1.41117e-08 1.41117e-08 1.41117e-08 1.41117e-08 1.41117e-08 1.41117e-08 1.41117e-08 1.41117e-08 1.41117e-08 1.41117e-08 1.41117e-08 1.41117e-08 1.41117e-08 1.41117e-08 1.41117e-08 1.41117e-08 1.41117e-08 1.41117e-08 1.41117e-08 1.41117e-08 1.41117e-08 1.41117e-08 1.41117e-08 1.41117e-08 1.41117e-08 1.41117e-08 1.41117e-08 1.41117e-08 1.41117e-08 1.41117e-08 1.41117e-08 1.41117e-08 1.41117e-08 1.41117e-08 1.41117e-08 1.41117e-08 1.41117e-08 1.41117e-08 1.41117e-08 1.41117e-08 1.41117e-08 1.41117e-08 1.41117e-08 1.41117e-08 1.41117e-08 1.41117e-08 1.41117e-08 1.41117e-08 1.41117e-08 1.41117e-08 1.41117e-08 1.41117e-08 1.41117e-08 1.41117e-08 1.41117e-08 1.41117e-08 1.41117e-08 1.41117e-08 1.41117e-08 1.41117e-08 1.41117e-08 1.41117e-08 1.41117e-08 1.41117e-08 1.41117e-08 1.41117e-08 1.41117e-08 1.41117e-08 1.41117e-08 1.41117e-08 1.41117e-08 1.41117e-08 1.41117e-08 1.41117e-08 1.41117e-08 1.41117e-08 1.41117e-08 1.41117e-08 1.41117e-08 1.41117e-08 1.41117e-08 1.41117e-08 1.41117e-08 1.41117e-08 1.41117e-08 1.41117e-08 1.41117e-08 1.41117e-08 1.41117e-08 1.41117e-08 1.41117e-08 1.41117e-08 1.41117e-08 1.41117e-08 1.41117e-08 1.41117e-08 1.41117e-08 1.41117e-08 1.41117e-08 1.41117e-08 1.41117e-08 1.41117e-08 1.41117e-08 1.41117e-08 1.41117e-08 1.41117e-08 1.41117e-08 1.41117e-08 1.41117e-08 1.41117e-08 1.41117e-08 1.41117e-08 1.41117e-08 1.41117e-08 1.41117e-08 1.41117e-08 1.41117e-08 1.41117e-08 1.41117e-08 1.41117e-08 1.41117e-08 1.41117e-08 1.41117e-08 1.41117e-08 1.41117e-08 1.41117e-08 1.41117e-08 1.41117e-08 1.41117e-08 1.41117e-08 1.41117e-08 1.41117e-08 1.41117e-08 1.41117e-08 1.41117e-08 1.41117e-08 1.41117e-08 1.41117e-08 1.41117e-08 1.41117e-08 1.41117e-08 1.41117e-08 1.41117e-08 1.41117e-08 1.41117e-08 1.41117e-08 1.41117e-08 1.41117e-08 1.41117e-08 1.41117e-08 1.41117e-08 1.41117e-08 1.41117e-08 1.41117e-08 1.41117e-08 1.41117e-08 1.41117e-08 1.41117e-08 1.41117e-08 1.41117e-08 1.41117e-08 1.41117e-08 1.41117e-08 1.41117e-08 1.41117e-08 1.41117e-08 1.41117e-08 1.41117e-08 1.41117e-08 1.41117e-08 1.41117e-08 1.41117e-08 1.41117e-08 1.41117e-08 1.41117e-08 1.41117e-08 1.41117e-08 1.41117e-08 1.41117e-08 1.41117e-08 1.41117e-08 1.41117e-08 1.41117e-08 1.41117e-08 1.41117e-08 1.41117e-08 1.41117e-08 1.41117e-08 1.41117e-08 1.41117e-08 1.41117e-08 1.41117e-08 1.41117e-08 1.41117e-08 1.41117e-08 1.41117e-08 1.41117e-08 1.41117e-08 1.41117e-08 1.41117e-08 1.41117e-08 1.41117e-08 1.41117e-08 1.41117e-08 1.41117e-08 1.41117e-08 1.41117e-08 1.41117e-08 
</DataArray>
<DataArray type="Float32" Name="Radius" NumberOfComponents="1" >
0.00015 0.00015 0.00015 0.00015 0.00015 0.00015 0.00015 0.00015 0.00015 0.00015 0.00015 0.00015 0.00015 0.00015 0.00015 0.00015 0.00015 0.00015 0.00015 0.00015 0.00015 0.00015 0.00015 0.00015 0.00015 0.00015 0.00015 0.00015 0.00015 0.00015 0.00015 0.00015 0.00015 0.00015 0.00015 0.00015 0.00015 0.00015 0.00015 0.00015 0.00015 0.00015 0.00015 0.00015 0.00015 0.00015 0.00015 0.00015 0.00015 0.00015 0.00015 0.00015 0.00015 0.00015 0.00015 0.00015 0.00015 0.00015 0.00015 0.00015 0.00015 0.00015 0.00015 0.00015 0.00015 0.00015 0.00015 0.00015 0.00015 0.00015 0.00015 0.00015 0.00015 0.00015 0.00015 0.00015 0.00015 0.00015 0.00015 0.00015 0.00015 0.00015 0.00015 0.00015 0.00015 0.00015 0.00015 0.00015 0.00015 0.00015 0.00015 0.00015 0.00015 0.00015 0.00015 0.00015 0.00015 0.00015 0.00015 0.00015 0.00015 0.00015 0.00015 0.00015 0.00015 0.00015 0.00015 0.00015 0.00015 0.00015 0.00015 0.00015 0.00015 0.00015 0.00015 0.00015 0.00015 0.00015 0.00015 0.00015 0.00015 0.00015 0.00015 0.00015 0.00015 0.00015 0.00015 0.00015 0.00015 0.00015 0.00015 0.00015 0.00015 0.00015 0.00015 0.00015 0.00015 0.00015 0.00015 0.00015 0.00015 0.00015 0.00015 0.00015 0.00015 0.00015 0.00015 0.00015 0.00015 0.00015 0.00015 0.00015 0.00015 0.00015 0.00015 0.00015 0.00015 0.00015 0.00015 0.00015 0.00015 0.00015 0.00015 0.00015 0.00015 0.00015 0.00015 0.00015 0.00015 0.00015 0.00015 0.00015 0.00015 0.00015 0.00015 0.00015 0.00015 0.00015 0.00015 0.00015 0.00015 0.00015 0.00015 0.00015 0.00015 0.00015 0.00015 0.00015 0.00015 0.00015 0.00015 0.00015 0.00015 0.00015 0.00015 0.00015 0.00015 0.00015 0.00015 0.00015 0.00015 0.00015 0.00015 0.00015 0.00015 0.00015 0.00015 0.00015 0.00015 0.00015 0.00015 0.00015 0.00015 0.00015 0.00015 0.00015 0.00015 0.00015 0.00015 0.00015 0.00015 0.00015 0.00015 0.00015 0.00015 0.00015 0.00015 0.00015 0.00015 0.00015 0.00015 0.00015 0.00015 0.00015 0.00015 0.00015 0.00015 0.00015 0.00015 0.00015 0.00015 0.00015 0.00015 0.00015 0.00015 0.00015 0.00015 0.00015 0.00015 0.00015 0.00015 0.00015 0.00015 0.00015 0.00015 0.00015 0.00015 
</DataArray>
<DataArray type="Float32" Name="Velocity" NumberOfComponents="3" >
0.0114632 5.06944e-05 -0.0216954 0.0130616 -1.35701e-05 -0.0247278 0.0122254 6.36135e-05 -0.023101 0.0105763 0.000129427 -0.0198834 0.0105428 0.000133152 -0.0198094 0.00817324 8.68817e-05 -0.0149359 0.0143228 -4.08754e-05 -0.0272974 0.00669855 -0.000110939 -0.0117366 0.00887917 0.000128067 -0.0164057 0.0139587 2.60469e-05 -0.0266898 0.0143059 -3.44466e-05 -0.0273536 0.00807863 0.000117735 -0.0147169 0.0154686 -3.81076e-05 -0.0296064 0.0127934 5.8739e-08 -0.0244295 0.0131773 1.6234e-05 -0.0251816 0.00627876 4.95172e-05 -0.0107328 0.00523249 -0.000100415 -0.00837356 0.00843857 -0.00019283 -0.0157911 0.0112152 -0.0001029 -0.0213667 0.00691537 -0.000192758 -0.0124504 0.00724451 -0.000203983 -0.0132306 0.0158424 1.07912e-06 -0.0304131 0.0140245 5.4544e-05 -0.0268892 0.0115663 -7.22529e-05 -0.0220813 0 0 0 0 0 0 0.0166588 -1.4447e-05 -0.0319449 0.00905968 -0.000256044 -0.0171781 0.0159078 -9.49157e-05 -0.0306355 0.00265312 -2.75697e-05 -0.0044957 0.0120275 0.000150303 -0.023129 0.00968319 0.000174689 -0.0183928 0.0169257 -5.34709e-05 -0.0324274 0.0130406 5.71388e-05 -0.0251212 0 0 0 0.00277286 -4.91062e-05 -0.00481339 0.017142 1.29447e-05 -0.0328019 0 0 0 0.0163911 -0.000105364 -0.0315164 0.00911576 -0.00019483 -0.0173319 0.0129613 8.10291e-05 -0.0248871 0.0180228 -1.09824e-05 -0.0342218 0.0135288 0.00010246 -0.0259882 0.0171865 3.95032e-05 -0.0328102 0 0 0 0.017094 -0.000114872 -0.0326796 0.018282 8.80533e-07 -0.0345995 0 0 0 0.0168647 0.000116754 -0.0320946 0 0 0 0.0113095 6.27446e-05 -0.0217138 0.00487937 -0.000140047 -0.00831366 0 0 0 0.0185229 -0.000121592 -0.0347901 0 0 0 0 0 0 0.00691277 -0.000120045 -0.0130788 0.0143971 -0.000287739 -0.027524 0.00552408 -0.000177709 -0.0100718 0.0192293 2.93143e-05 -0.0359586 0.019372 -6.47679e-05 -0.0361656 0.019059 -0.000110955 -0.0355554 0.0169738 0.000186069 -0.032007 0 0 0 0.014967 0.000225385 -0.0284743 0.0193953 3.81918e-05 -0.0361788 0.00869202 8.21695e-07 -0.0167529 0 0 0 0.00999994 0.000109022 -0.0193841 0.00793525 2.96716e-06 -0.0153044 0.0162566 0.00024382 -0.0306058 0.0198177 4.43896e-06 -0.0368467 0.0181597 -0.000224112 -0.0337396 0.020031 -3.13487e-05 -0.0372116 0.0195011 -0.000118021 -0.0360914 0.0194497 -0.000123866 -0.0359828 0.0167171 0.000246056 -0.0313049 0.00807704 -5.24829e-05 -0.015573 0.0198607 -9.48305e-05 -0.0367006 0 0 0 0.0131846 -0.000401123 -0.024947 0.01224 0.000231211 -0.0236897 0 0 0 0.0173544 0.000227725 -0.0321566 0.0169846 0.000251686 -0.0315169 0.0183956 0.000168972 -0.0339066 0.0166927 0.000271753 -0.0309759 0.0140742 0.000330333 -0.0266467 0.0128185 -0.000447721 -0.0241573 0.0155308 0.000314815 -0.0289834 0.0198702 -0.000148311 -0.0364006 0.0203747 6.80471e-05 -0.0375272 0.00660735 0.000210439 -0.0131102 0.0160767 0.000290693 -0.0298463 0.0206169 -2.88981e-05 -0.0380102 0.00323824 -0.000108568 -0.00594487 0.00751372 0.000245193 -0.0150234 0.00878393 0.00025065 -0.0175415 0.0197233 0.000116455 -0.0362081 0.0206695 -3.74966e-05 -0.0380917 0.0205818 2.85964e-05 -0.0378784 0.0183799 0.000169947 -0.0336618 0.0174793 -0.000268349 -0.0319243 0.0132026 -0.000436343 -0.0247389 0.0207169 -6.09279e-05 -0.0380808 0.0206219 -9.13559e-05 -0.037822 0.0202605 9.90013e-05 -0.0371407 0.0177976 0.00019218 -0.0325435 0.0206278 8.1969e-05 -0.0378028 0.0190511 -0.000214432 -0.034575 0.00702867 0.000328574 -0.0144128 0.0198243 0.000132727 -0.0361846 0 0 0 0.0135633 0.000307936 -0.0256117 0.0154721 -0.000309814 -0.0283699 0.02057 -0.000158802 -0.037494 0.0205004 0.000103136 -0.0374583 0.0203821 -0.000174369 -0.0370837 0.017109 -0.000274075 -0.0310599 0.0195667 0.000152111 -0.0356313 0.0200052 -0.00020114 -0.036289 0.0132706 -0.000351545 -0.0246834 0.020517 0.000114297 -0.0374056 0.0126725 -0.000378317 -0.0237026 0.0124848 0.000321858 -0.0237922 0.0159673 -0.000304747 -0.0290734 0.00475828 -0.000215905 -0.00877776 0.0194295 -0.000230314 -0.0350815 0.0212051 -7.5033e-06 -0.0386901 0.0188744 -0.000247944 -0.0340368 0.0211956 2.00654e-05 -0.0386384 0.0178175 -0.000271363 -0.0321555 0.0210369 8.04087e-05 -0.0383124 0.0104719 0.000400331 -0.0204268 0.0210378 -0.000141511 -0.0382156 0.0209795 9.18737e-05 -0.0381458 0.0130658 0.000315653 -0.024566 0.0178147 0.000234327 -0.0322352 0.0123448 0.000333347 -0.0233641 0.010997 0.000365384 -0.0212199 0.00435895 0.000131882 -0.00765223 0 0 0 0.0041648 0.000108529 -0.00728086 0.0205113 0.000155464 -0.0371116 0.0161736 -0.000334142 -0.0291259 0.0153025 0.000305228 -0.0279226 0.010666 -0.000398706 -0.020249 0.0195557 -0.000275308 -0.0350077 0.0152959 -0.000364006 -0.027592 0.0161898 0.000289023 -0.0292997 0.0148332 0.000320939 -0.0270886 0.00628098 -0.000192087 -0.0113842 0.0116453 -0.000376752 -0.0217742 0.0192441 0.000238403 -0.0345272 0.0134727 -0.000397337 -0.0246288 0.0214579 -0.000120561 -0.0386408 0.0118926 0.000388729 -0.0223724 0.0207693 0.000169389 -0.0372724 0.0180885 -0.000313029 -0.0321557 0.0115572 0.000404721 -0.0217982 0.0169842 -0.000331976 -0.0302427 0.0162437 -0.000351201 -0.0289912 0.0117706 0.000399575 -0.0219982 0.0071502 0.00014734 -0.0126406 0.0125161 -0.000447717 -0.0228746 0.0055541 -5.06421e-05 -0.00979375 0.0215847 6.04171e-05 -0.0387949 0.0216643 -8.92733e-05 -0.0388743 0.0190095 0.000264023 -0.0338538 0.0156643 -0.000368443 -0.0279676 0.0129698 -0.000440704 -0.0234623 0.0217103 -1.77127e-05 -0.0389958 0.0207847 0.000185007 -0.037117 0.019968 0.000228252 -0.0355804 0.0217853 -6.11775e-05 -0.0390731 0.0214519 0.000106195 -0.0383884 0.0044882 -3.25974e-06 -0.00781477 0.0150144 -0.000391768 -0.0268338 0.00839564 9.22269e-05 -0.014762 0.00286757 5.09545e-06 -0.0050581 0.0169898 0.000287112 -0.0302884 0.0215764 9.65294e-05 -0.0385599 0.0218283 -5.22321e-05 -0.0390674 0.00990167 7.45692e-05 -0.0172159 0.0174194 -0.000332921 -0.0306677 0.0218425 -4.68743e-05 -0.0390461 0.00394316 -8.63304e-06 -0.00682348 0.0160416 -0.000326927 -0.028143 0.0217761 2.34994e-05 -0.0388771 0.0201441 0.00023497 -0.0356247 0.0203723 -0.000277712 -0.0359362 0.00948069 -2.17261e-05 -0.0161619 0.00532759 3.28169e-07 -0.00913771 0.021676 9.98132e-05 -0.0385925 0.00962342 6.52858e-06 -0.016295 0.0209898 0.000196309 -0.0370819 0.0156427 0.000102184 -0.0268014 0.0206596 0.00021633 -0.0364223 0.0102577 4.23451e-05 -0.0171816 0.0173936 -0.000231869 -0.0300208 0.0118766 -6.18401e-05 -0.0199002 0.0142769 -7.82401e-07 -0.0239449 0.0154957 6.3297e-05 -0.0263012 0.0217788 -0.000108188 -0.0385599 0.0179628 0.000180569 -0.0309524 0.0212442 0.000159916 -0.0374795 0.0213881 -0.000213185 -0.0376505 0.0191188 0.000209669 -0.0330342 0.0185725 0.000189477 -0.0319561 0.0184826 0.000183171 -0.0317268 0.00590482 -5.20121e-05 -0.00994536 0.0204666 0.000205894 -0.0358042 0.00984969 0.000172862 -0.0160122 0.0184165 0.000183788 -0.0315316 0.00912232 -0.000165891 -0.0150257 0.0198304 0.000226233 -0.0344719 0.0158659 6.26563e-05 -0.0265096 0.0212356 -9.35071e-06 -0.0378022 0.0199526 0.000231113 -0.0348169 0.0204101 0.000212917 -0.0358406 0.0154065 4.38119e-05 -0.0256064 0.00954989 -0.000183608 -0.0155959 0.0202723 0.000220572 -0.0355596 0.0164233 -0.000124023 -0.0273674 0.0177085 -0.000212263 -0.0299242 0.0194953 -0.000304315 -0.0337511 0.0207176 -0.000221447 -0.0367146 0.0199937 -0.00030898 -0.0351049 0.0206092 -5.08078e-05 -0.0370286 0.0202222 -0.000270254 -0.0359557 0.0182277 -0.000349184 -0.0311817 0.0172115 0.000219967 -0.0291026 0.0198335 -0.000303495 -0.0354553 0.0168537 -0.000271735 -0.0282748 0.0181612 0.000313931 -0.0313401 0.0185604 -0.000416516 -0.0322526 0.019862 2.35423e-05 -0.0361191 0.0197481 5.35022e-05 -0.035978 0.0192043 -0.000264691 -0.0350854 0.0189401 -0.000407106 -0.034158 0.00853883 0.000195089 -0.0135423 0.0181733 -0.00053795 -0.0323319 0.0161219 -0.000388452 -0.0270245 0.0172509 -0.000537968 -0.0298219 0.0159882 -0.000437707 -0.0268853 0.0172553 0.000501171 -0.0307261 0.00495266 0.000152569 -0.00791803 0.0174082 0.000489205 -0.0317436 0.0162803 0.000492066 -0.0283716 0.0161053 0.000524412 -0.0282152 0.0145504 -0.000385892 -0.0240262 0.0155666 -0.000585998 -0.0265652 0.0153584 -0.000578994 -0.0261124 0.0163961 -0.000752801 -0.0298611 0.0149552 -0.000614477 -0.0254895 0.0105598 0.00018962 -0.0164734 0.0157889 -0.000819382 -0.0295197 
</DataArray>
<DataArray type="Float32" Name="Force" NumberOfComponents="3" >
1.61138e-10 5.11388e-12 1.00302e-10 1.15502e-10 1.6937e-11 8.5623e-11 1.43224e-10 1.73843e-11 6.59128e-11 1.56264e-10 1.22015e-11 7.93868e-11 1.56809e-10 1.25241e-11 7.77339e-11 1.39852e-10 5.23597e-12 1.66105e-10 6.52255e-11 1.04295e-11 8.01818e-11 1.23966e-10 -5.95421e-12 2.03573e-10 1.47657e-10 9.60447e-12 1.16998e-10 6.36629e-11 -2.40769e-11 6.66033e-11 5.82206e-11 4.82521e-11 6.43506e-11 1.44e-10 1.02075e-11 1.25098e-10 4.44431e-11 2.05321e-11 6.3678e-11 8.67688e-11 -2.57932e-11 4.77816e-11 7.64932e-11 -2.79072e-11 5.14115e-11 1.32219e-10 6.46047e-12 1.90665e-10 1.1411e-10 -8.53199e-12 2.32998e-10 1.462e-10 -3.76841e-12 1.07081e-10 1.39227e-10 -1.73458e-11 1.96266e-11 1.34269e-10 -3.6949e-12 1.49498e-10 1.36601e-10 -3.43372e-12 1.36518e-10 2.45337e-11 -6.45075e-12 4.29613e-11 5.05303e-11 -3.87246e-11 5.40736e-11 1.16069e-10 -2.38837e-11 2.16573e-11 1.13983e-10 -8.68592e-12 1.92518e-10 1.28395e-10 6.86164e-12 2.0121e-10 2.46319e-12 1.71867e-11 5.68482e-11 1.62154e-10 -5.13898e-12 4.52041e-11 9.22611e-13 4.57846e-11 4.77292e-11 4.85201e-11 -3.05985e-12 1.43201e-11 1.01593e-10 5.13762e-11 1.27834e-11 1.7767e-10 3.27784e-11 -2.66081e-11 -1.82366e-11 2.7481e-11 5.77208e-11 8.59281e-11 6.03146e-11 2.93711e-11 1.11946e-10 -7.23936e-12 1.6517e-10 5.53095e-11 5.56169e-12 1.8221e-11 -1.75843e-11 -6.13332e-12 5.55317e-11 -2.36808e-11 -3.35737e-12 6.45747e-11 -1.27998e-11 3.64397e-11 5.52975e-11 1.76133e-10 -5.65622e-12 -5.39661e-13 5.86761e-11 -4.36815e-11 3.29678e-11 -3.72506e-11 1.21564e-11 5.72226e-11 5.41245e-11 -4.67747e-11 3.92574e-11 -1.85726e-11 -8.18813e-12 5.90845e-11 -1.2545e-11 -2.42941e-12 3.2058e-11 -3.61175e-11 2.1949e-11 5.62021e-11 -3.93601e-11 8.26535e-12 5.40827e-11 -3.44469e-11 2.03302e-13 8.12519e-11 -3.09501e-11 -5.72394e-12 5.78115e-11 1.83426e-10 2.20345e-11 -3.56779e-11 9.06942e-11 -2.34292e-11 -5.15812e-12 1.51774e-10 1.87698e-11 7.51315e-11 -1.2597e-10 1.01195e-12 2.96467e-10 -5.53815e-11 -1.01193e-12 4.9994e-11 -4.25348e-11 1.24901e-12 9.7742e-11 -1.36869e-10 4.69347e-13 3.2181e-10 1.96133e-10 1.30225e-12 -3.21159e-11 2.36348e-11 2.98713e-11 4.92736e-11 1.75988e-10 3.41959e-12 2.41769e-11 -4.17568e-11 1.20444e-11 5.47915e-11 -5.22113e-11 9.92805e-12 5.54658e-11 -5.9473e-11 2.55434e-12 5.29269e-11 -3.57179e-11 5.901e-12 5.28632e-11 1.5806e-10 1.64698e-11 6.38186e-12 -5.74317e-12 -6.16358e-12 4.78432e-11 -4.33686e-11 1.21113e-11 5.49326e-11 1.52552e-10 2.54879e-11 -4.5175e-11 -1.4209e-10 4.70567e-13 3.54201e-10 9.58095e-11 -1.34841e-11 -3.55806e-11 1.73129e-10 2.31895e-11 -7.07353e-11 -3.41689e-11 9.56067e-12 4.85163e-11 -4.03038e-11 1.42703e-11 6.25715e-11 -4.64981e-11 1.43792e-12 6.31013e-11 -3.7206e-11 1.54267e-11 6.60673e-11 -4.39929e-11 7.80562e-12 6.37745e-11 -4.54662e-11 6.72494e-12 6.26701e-11 -4.00074e-11 1.51689e-11 4.94821e-11 1.63336e-10 2.09751e-11 -5.62333e-11 -2.96983e-11 1.35654e-11 7.00447e-11 1.99874e-10 2.44552e-12 -6.03295e-11 4.4206e-11 1.89213e-11 5.29104e-11 3.12315e-11 -1.88087e-11 9.94061e-13 -1.22888e-10 -9.66756e-13 2.82833e-10 -4.25585e-11 1.65146e-11 6.21003e-11 -4.39112e-11 1.80465e-11 5.90837e-11 -3.42391e-11 1.4254e-11 7.23484e-11 -4.22382e-11 1.94731e-11 5.87939e-11 -8.98355e-12 2.10003e-12 3.10413e-11 3.65903e-11 1.33245e-11 4.6334e-11 -3.26914e-11 1.50371e-11 4.86983e-11 -1.48584e-11 1.77433e-11 6.73923e-11 -1.53058e-11 1.35946e-11 7.34596e-11 1.64177e-10 1.5911e-12 -9.74244e-11 -3.88472e-11 1.84251e-11 5.6203e-11 -1.15553e-11 1.55229e-11 7.30403e-11 -1.89597e-12 4.86503e-12 -3.96215e-12 1.1544e-10 -2.49777e-12 -8.0391e-11 7.83909e-11 -1.31399e-11 -6.55128e-11 -1.77058e-11 1.24223e-11 7.41251e-11 -1.24734e-11 1.49564e-11 7.10706e-11 -1.28381e-11 1.38507e-11 7.18537e-11 -2.40621e-11 1.26927e-11 7.45889e-11 -2.51611e-11 1.71724e-11 6.75343e-11 1.70651e-11 3.5369e-12 4.73685e-11 -1.30963e-11 1.50438e-11 6.67523e-11 -1.47991e-11 1.62392e-11 6.50655e-11 -1.31158e-11 1.26978e-11 7.24876e-11 -2.07336e-11 1.22621e-11 7.62921e-11 -2.10871e-11 1.19263e-11 6.4801e-11 -2.80613e-11 2.47467e-11 5.84321e-11 9.65546e-11 -2.4716e-12 -8.73788e-11 -2.4522e-11 1.0853e-11 6.50703e-11 -7.58517e-11 -2.0474e-12 1.60598e-10 -1.47795e-11 -6.51202e-12 3.1632e-11 -1.44804e-11 1.78759e-11 6.56756e-11 -2.63977e-11 1.506e-11 5.25419e-11 -2.82767e-11 1.08961e-11 6.04888e-11 -2.80478e-11 1.67936e-11 5.11464e-11 -2.89627e-11 2.64576e-11 5.79155e-11 -2.98058e-11 1.01194e-11 6.35942e-11 -3.71061e-11 1.79024e-11 4.91886e-11 8.98615e-12 1.46547e-11 5.86933e-11 -3.32242e-11 1.01598e-11 5.62712e-11 1.49783e-11 1.43259e-11 4.90538e-11 -2.11895e-12 -1.34e-11 1.99393e-11 -2.25707e-11 2.70308e-11 5.56101e-11 -9.69591e-12 -7.97109e-12 -5.74404e-12 -4.5907e-11 2.13964e-11 4.95557e-11 -3.46881e-11 1.08078e-11 4.56093e-11 -4.92045e-11 2.11918e-11 4.87712e-11 -3.47421e-11 1.09044e-11 4.58939e-11 -4.88523e-11 2.2368e-11 5.2482e-11 -3.63361e-11 9.96128e-12 4.79372e-11 3.01405e-11 -1.60861e-11 -1.77331e-12 -3.41727e-11 1.34093e-11 4.05136e-11 -3.86666e-11 9.1997e-12 4.59244e-11 -5.45578e-12 -7.73851e-12 4.49205e-11 -4.6115e-11 6.87112e-12 6.17884e-11 -2.591e-13 -1.02671e-11 3.59926e-11 1.65766e-11 -1.69937e-11 8.34149e-12 -1.38739e-11 8.4451e-12 1.45275e-11 -2.29401e-11 -1.59656e-12 5.24036e-11 -1.35779e-11 4.52695e-12 2.10454e-11 -4.14132e-11 8.13238e-12 4.63859e-11 -5.3313e-11 2.04294e-11 5.08401e-11 -3.72496e-11 4.78372e-12 6.43841e-11 2.74518e-11 2.04115e-11 3.65318e-11 -5.45028e-11 1.69801e-11 3.91852e-11 -4.77338e-11 2.1118e-11 5.21646e-11 -5.47585e-11 5.70243e-12 5.96645e-11 -4.04521e-11 4.66217e-12 6.15804e-11 -2.06122e-11 -1.92069e-11 -1.50631e-11 1.07562e-11 2.51186e-11 4.67061e-11 -5.29555e-11 5.52113e-12 5.10493e-11 -1.83505e-11 2.52706e-11 5.23243e-11 -3.18031e-11 1.07802e-11 2.46105e-11 1.05292e-12 -3.85366e-12 5.08034e-11 -4.06454e-11 6.48192e-12 3.90757e-11 -6.32104e-11 1.40713e-11 4.57812e-11 -6.31188e-11 1.01331e-12 9.40522e-12 -6.34564e-11 1.46395e-11 4.70399e-11 -6.31534e-11 1.44996e-11 4.97464e-11 -1.00003e-10 1.01497e-11 -2.37466e-12 -2.1566e-11 1.93153e-11 8.56446e-12 -8.07232e-11 -8.23104e-12 2.63513e-11 -1.48601e-11 -6.73948e-12 1.12745e-11 -3.56061e-11 8.03732e-12 2.53208e-11 -3.07481e-11 1.24779e-11 1.7948e-11 -5.34143e-11 5.05086e-12 5.07756e-11 -6.00946e-11 1.5015e-11 5.08222e-11 -8.54288e-11 -2.06892e-11 2.69765e-11 -3.19074e-11 1.06085e-11 1.96837e-11 -4.19015e-11 6.56623e-12 3.64129e-11 -4.80881e-11 5.9799e-12 4.29733e-11 -2.93868e-11 1.20168e-11 1.46602e-11 -3.68855e-11 8.03198e-12 2.38121e-11 -1.12072e-11 3.28496e-12 1.41337e-11 -5.86199e-11 1.40635e-11 5.21253e-11 -3.46825e-11 1.6238e-11 1.70255e-11 -6.42222e-12 -2.48976e-12 1.89307e-11 -6.6351e-11 7.06547e-12 5.23039e-11 -3.50103e-11 8.43335e-12 1.9545e-11 -2.68124e-11 1.27745e-11 1.14491e-11 -3.94027e-11 1.70367e-11 1.92107e-11 -6.4008e-11 1.2771e-11 4.66273e-11 -2.58683e-11 1.40412e-11 9.28771e-12 -9.96398e-12 -5.39564e-12 9.73818e-12 -7.6283e-11 -3.47135e-11 2.77451e-11 -2.59035e-11 1.18028e-11 9.82272e-12 -4.64577e-11 6.70964e-12 3.39268e-11 -4.42667e-11 2.12156e-11 2.06223e-11 -2.98362e-11 -1.41934e-11 1.0039e-11 -1.75692e-11 4.7886e-13 2.4576e-11 -2.67589e-11 1.07713e-11 8.12465e-12 -3.17063e-11 -1.19197e-11 1.26047e-11 -3.12798e-11 8.31431e-12 1.37979e-11 -3.81391e-11 1.71743e-11 -1.41276e-11 -3.43043e-11 7.95164e-12 1.54016e-11 -3.41522e-11 -1.10897e-11 1.40011e-11 -3.96923e-11 -2.12855e-11 -1.01447e-11 -3.20171e-11 1.12203e-11 1.29211e-11 -3.041e-11 -1.3399e-11 -2.37875e-12 -2.68025e-11 1.01525e-11 -1.56078e-11 -5.48571e-12 1.76747e-11 -9.60636e-12 -1.97607e-11 1.56263e-11 -3.11132e-11 1.5076e-11 3.22241e-12 -2.88118e-11 3.51842e-11 -3.10395e-12 -4.9175e-11 6.04778e-12 6.63466e-12 -5.73147e-11 1.52385e-12 6.33253e-12 -4.89047e-11 1.10824e-11 5.57173e-12 -5.32873e-11 -2.28298e-11 1.91159e-12 2.86596e-11 3.73578e-11 1.60134e-12 -7.27488e-11 -2.40412e-11 -8.07497e-12 1.44896e-11 2.40425e-11 1.01614e-12 -6.34849e-11 -2.69717e-11 9.49688e-12 2.19463e-11 5.89713e-11 -1.92475e-12 -9.50295e-11 7.60182e-12 4.48614e-13 -4.18993e-11 1.07886e-10 -1.51932e-12 -1.25126e-10 7.67065e-11 -5.62613e-12 -1.10592e-10 9.13316e-11 -4.49358e-12 -1.23864e-10 3.20579e-12 1.108e-12 -3.19512e-11 -2.88728e-11 5.88905e-12 2.40043e-11 9.20994e-11 -5.58546e-12 -1.23567e-10 1.9531e-11 3.06331e-12 -5.2491e-11 3.69746e-11 5.93024e-12 -7.33594e-11 7.55649e-11 7.43525e-12 -1.07048e-10 1.14382e-10 6.28533e-12 -1.37912e-10 1.04734e-10 9.89017e-12 -1.25636e-10 1.46242e-10 2.14642e-12 -1.50993e-10 1.35672e-10 9.9596e-12 -1.48306e-10 8.37453e-11 1.46168e-11 -1.10551e-10 5.69711e-11 -9.08664e-12 -8.41844e-11 1.5259e-10 1.26608e-11 -1.59031e-10 5.68076e-11 1.48018e-11 -8.36451e-11 9.55899e-11 -1.17771e-11 -1.17846e-10 1.1442e-10 1.78484e-11 -1.33905e-10 1.79123e-10 -8.94816e-13 -1.70232e-10 1.83375e-10 -2.19256e-12 -1.72785e-10 1.9544e-10 1.12217e-11 -1.83024e-10 1.77432e-10 1.74896e-11 -1.72313e-10 -1.83017e-11 -2.23032e-12 2.70579e-11 1.66991e-10 2.15319e-11 -1.69653e-10 8.08841e-11 1.88509e-11 -9.65619e-11 1.2437e-10 2.30682e-11 -1.32817e-10 8.82617e-11 1.92177e-11 -9.96305e-11 1.68336e-10 -1.84072e-11 -1.6137e-10 -1.8442e-11 -4.2318e-12 2.8928e-11 1.96493e-10 -1.83761e-11 -1.76845e-10 1.37816e-10 -1.8471e-11 -1.32136e-10 1.46882e-10 -1.92619e-11 -1.37727e-10 7.74112e-11 9.55626e-12 -8.66515e-11 1.21945e-10 1.89128e-11 -1.25086e-10 1.15721e-10 1.73312e-11 -1.16758e-10 2.00745e-10 2.31753e-11 -1.79314e-10 1.24283e-10 1.41664e-11 -1.17086e-10 -1.00402e-12 -7.15228e-12 3.71565e-13 2.2841e-10 2.04723e-11 -1.96464e-10 
</DataArray>
<DataArray type="Float32" Name="Active" NumberOfComponents="1" >
0 0 0 0 0 0 0 0 0 0 0 0 0 0 0 0 0 0 0 0 0 0 0 0 0 0 0 0 0 1 0 0 0 0 0 1 0 0 0 0 0 0 0 0 0 0 0 0 0 0 0 0 0 0 0 0 0 0 0 0 0 0 0 0 0 0 0 0 0 0 0 0 0 0 0 0 0 0 0 0 0 0 0 0 0 0 0 0 0 0 0 0 0 0 0 1 0 0 0 0 0 0 0 0 0 0 0 0 0 0 0 0 0 0 0 0 0 0 0 0 0 0 0 0 0 0 1 0 0 0 0 0 0 0 0 0 0 0 0 0 1 0 1 0 0 0 0 0 0 0 0 1 0 0 0 0 1 0 0 1 0 0 1 1 1 1 0 0 0 0 1 0 0 0 0 0 1 0 1 1 0 0 0 1 0 0 1 1 0 0 0 1 1 0 1 0 1 0 1 1 1 1 1 0 1 1 1 1 1 1 1 1 1 1 1 1 1 1 1 1 1 1 1 1 1 1 1 1 1 1 1 1 1 1 1 1 1 1 1 1 1 1 1 1 1 1 1 1 1 1 1 1 1 1 1 1 1 
</DataArray>
</PointData>
<CellData /> 
<Cells>
<DataArray type="Int32" Name="connectivity" format="ascii">
0 1 2 3 4 5 6 7 8 9 10 11 12 13 14 15 16 17 18 19 20 21 22 23 24 25 26 27 28 29 30 31 32 33 34 35 36 37 38 39 40 41 42 43 44 45 46 47 48 49 50 51 52 53 54 55 56 57 58 59 60 61 62 63 64 65 66 67 68 69 70 71 72 73 74 75 76 77 78 79 80 81 82 83 84 85 86 87 88 89 90 91 92 93 94 95 96 97 98 99 100 101 102 103 104 105 106 107 108 109 110 111 112 113 114 115 116 117 118 119 120 121 122 123 124 125 126 127 128 129 130 131 132 133 134 135 136 137 138 139 140 141 142 143 144 145 146 147 148 149 150 151 152 153 154 155 156 157 158 159 160 161 162 163 164 165 166 167 168 169 170 171 172 173 174 175 176 177 178 179 180 181 182 183 184 185 186 187 188 189 190 191 192 193 194 195 196 197 198 199 200 201 202 203 204 205 206 207 208 209 210 211 212 213 214 215 216 217 218 219 220 221 222 223 224 225 226 227 228 229 230 231 232 233 234 235 236 237 238 239 240 241 242 243 244 245 246 247 248 249 250 251 252 253 254 255 256 </DataArray>
<DataArray type="Int32" Name="offsets" format="ascii">
1 2 3 4 5 6 7 8 9 10 11 12 13 14 15 16 17 18 19 20 21 22 23 24 25 26 27 28 29 30 31 32 33 34 35 36 37 38 39 40 41 42 43 44 45 46 47 48 49 50 51 52 53 54 55 56 57 58 59 60 61 62 63 64 65 66 67 68 69 70 71 72 73 74 75 76 77 78 79 80 81 82 83 84 85 86 87 88 89 90 91 92 93 94 95 96 97 98 99 100 101 102 103 104 105 106 107 108 109 110 111 112 113 114 115 116 117 118 119 120 121 122 123 124 125 126 127 128 129 130 131 132 133 134 135 136 137 138 139 140 141 142 143 144 145 146 147 148 149 150 151 152 153 154 155 156 157 158 159 160 161 162 163 164 165 166 167 168 169 170 171 172 173 174 175 176 177 178 179 180 181 182 183 184 185 186 187 188 189 190 191 192 193 194 195 196 197 198 199 200 201 202 203 204 205 206 207 208 209 210 211 212 213 214 215 216 217 218 219 220 221 222 223 224 225 226 227 228 229 230 231 232 233 234 235 236 237 238 239 240 241 242 243 244 245 246 247 248 249 250 251 252 253 254 255 256 257 </DataArray>
<DataArray type="UInt8" Name="types" format="ascii">
1 1 1 1 1 1 1 1 1 1 1 1 1 1 1 1 1 1 1 1 1 1 1 1 1 1 1 1 1 1 1 1 1 1 1 1 1 1 1 1 1 1 1 1 1 1 1 1 1 1 1 1 1 1 1 1 1 1 1 1 1 1 1 1 1 1 1 1 1 1 1 1 1 1 1 1 1 1 1 1 1 1 1 1 1 1 1 1 1 1 1 1 1 1 1 1 1 1 1 1 1 1 1 1 1 1 1 1 1 1 1 1 1 1 1 1 1 1 1 1 1 1 1 1 1 1 1 1 1 1 1 1 1 1 1 1 1 1 1 1 1 1 1 1 1 1 1 1 1 1 1 1 1 1 1 1 1 1 1 1 1 1 1 1 1 1 1 1 1 1 1 1 1 1 1 1 1 1 1 1 1 1 1 1 1 1 1 1 1 1 1 1 1 1 1 1 1 1 1 1 1 1 1 1 1 1 1 1 1 1 1 1 1 1 1 1 1 1 1 1 1 1 1 1 1 1 1 1 1 1 1 1 1 1 1 1 1 1 1 1 1 1 1 1 1 1 1 1 1 1 1 1 1 1 1 1 1 </DataArray>
</Cells>
<Points>
<DataArray type="Float32" Name="Position" NumberOfComponents="3" >