<?xml version="1.0"?>
<VTKFile type="UnstructuredGrid" version="0.1" byte_order="LittleEndian">
<UnstructuredGrid>
<Piece NumberOfPoints="49" NumberOfCells="49">
<PointData Vectors="Particles">
<DataArray type="Float32" Name="Mass" NumberOfComponents="1" >
1.41117e-08 1.41117e-08 1.41117e-08 1.41117e-08 1.41117e-08 1.41117e-08 1.41117e-08 1.41117e-08 1.41117e-08 1.41117e-08 1.41117e-08 1.41117e-08 1.41117e-08 1.41117e-08 1.41117e-08 1.41117e-08 1.41117e-08 1.41117e-08 1.41117e-08 1.41117e-08 1.41117e-08 1.41117e-08 1.41117e-08 1.41117e-08 1.41117e-08 1.41117e-08 1.41117e-08 1.41117e-08 1.41117e-08 1.41117e-08 1.41117e-08 1.41117e-08 1.41117e-08 1.41117e-08 1.41117e-08 1.41117e-08 1.41117e-08 1.41117e-08 1.41117e-08 1.41117e-08 1.41117e-08 1.41117e-08 1.41117e-08 1.41117e-08 1.41117e-08 1.41117e-08 1.41117e-08 1.41117e-08 1.41117e-08 
</DataArray>
<DataArray type="Float32" Name="Radius" NumberOfComponents="1" >
0.00015 0.00015 0.00015 0.00015 0.00015 0.00015 0.00015 0.00015 0.00015 0.00015 0.00015 0.00015 0.00015 0.00015 0.00015 0.00015 0.00015 0.00015 0.00015 0.00015 0.00015 0.00015 0.00015 0.00015 0.00015 0.00015 0.00015 0.00015 0.00015 0.00015 0.00015 0.00015 0.00015 0.00015 0.00015 0.00015 0.00015 0.00015 0.00015 0.00015 0.00015 0.00015 0.00015 0.00015 0.00015 0.00015 0.00015 0.00015 0.00015 
</DataArray>
<DataArray type="Float32" Name="Velocity" NumberOfComponents="3" >
0.00127106 -0.000286253 -0.0334075 0.00121638 -0.000462879 -0.0329884 0.000962585 -0.000504824 -0.0324313 0.00117702 -0.000492913 -0.0329857 0.00222118 -0.000558462 -0.0374061 0.00242854 -0.00025519 -0.0385991 0.00168502 -0.000771898 -0.036066 0.00258766 -0.000368415 -0.0390399 0.00139622 -0.000395136 -0.0338978 0.00259115 -0.000498456 -0.0388785 0.00168537 -0.000828144 -0.0362744 0.00229268 -0.000730196 -0.0376214 0.00275397 -0.00017297 -0.039725 0.00142976 -0.000227938 -0.0343993 0.00143168 -0.000205479 -0.0344411 0.000854296 -0.000534383 -0.0323809 0.000762631 -0.000553768 -0.0325069 0.000946923 -0.000540465 -0.0326685 7.75486e-05 -0.000588427 -0.0321775 0.0015061 -0.000189937 -0.0348288 0.000833177 -0.000557207 -0.0326465 0.00116578 -0.000526661 -0.0332097 0.00113988 -0.000557486 -0.0334202 0.00066339 -0.000600467 -0.0327904 0.00163606 -0.000381746 -0.0351557 0.00167318 -0.000140331 -0.0357026 0.00155014 -0.000478028 -0.0345761 0.00128404 -0.000582866 -0.0340164 0.0017012 -0.000438195 -0.0354279 0.00174402 -0.000301494 -0.0357441 0.00173499 -0.000419034 -0.0356061 0.00179348 -0.000418549 -0.0358759 0.00101407 -0.000646272 -0.0337973 0.00175193 -0.000509433 -0.0354833 0.00123108 -0.000638318 -0.0342234 0.00163018 -0.000586104 -0.0351337 0.00193968 -0.000210949 -0.0367402 0.00120108 -0.000677955 -0.0343483 0.00162572 -0.000643843 -0.0352122 0.00170966 -0.000630333 -0.0354997 0.00138021 -0.00068381 -0.0348959 0.000779566 -0.000763091 -0.0342421 0.00197709 -0.000572913 -0.0364251 0.00220105 -0.000219987 -0.0377749 0.00124388 -0.000738053 -0.0348919 0.00173985 -0.000679159 -0.0356747 0.000568296 -0.000799407 -0.0343743 0.00206605 -0.000599205 -0.0367948 0.0020917 -0.000611449 -0.0369112 
</DataArray>
<DataArray type="Float32" Name="Force" NumberOfComponents="3" >
6.29933e-11 -7.20467e-12 1.00038e-11 5.78186e-11 -1.43288e-11 6.47756e-11 4.58868e-11 -1.69144e-11 9.75381e-11 5.42267e-11 -1.61303e-11 8.34006e-11 9.79615e-11 -1.94195e-11 9.70992e-11 1.08716e-10 -8.67915e-12 5.72506e-11 7.24672e-11 -2.55578e-11 1.88626e-10 1.17243e-10 -1.2724e-11 7.7852e-11 6.58336e-11 -1.25365e-11 3.58097e-11 1.18027e-10 -1.71503e-11 9.06341e-11 7.41647e-11 -2.5672e-11 2.19173e-10 1.05193e-10 -2.41767e-11 1.59406e-10 1.27272e-10 -5.97949e-12 7.05504e-11 6.99424e-11 -5.40364e-12 9.78032e-12 7.03081e-11 -4.70334e-12 7.50753e-12 3.99322e-11 -1.90665e-11 1.20375e-10 3.54751e-11 -2.03626e-11 1.2865e-10 4.35958e-11 -1.87191e-11 1.15577e-10 2.7625e-12 -2.4228e-11 1.56356e-10 7.3815e-11 -5.03022e-12 9.52453e-12 3.8368e-11 -2.0078e-11 1.28137e-10 5.23669e-11 -1.73015e-11 1.05212e-10 5.11318e-11 -1.92748e-11 1.15448e-10 2.9054e-11 -2.18246e-11 1.50985e-10 7.53909e-11 -1.24922e-11 4.25494e-11 8.07214e-11 -4.01988e-12 1.55944e-11 6.93662e-11 -1.5708e-11 6.72094e-11 5.61789e-11 -1.97949e-11 1.2306e-10 7.71482e-11 -1.48225e-11 5.42265e-11 8.17326e-11 -9.82115e-12 3.27984e-11 7.84176e-11 -1.39689e-11 5.26998e-11 8.04485e-11 -1.39613e-11 5.41676e-11 4.40922e-11 -2.24517e-11 1.57255e-10 7.71625e-11 -1.74646e-11 7.59091e-11 5.28056e-11 -2.23008e-11 1.48456e-10 7.01296e-11 -1.90188e-11 1.03154e-10 8.85398e-11 -6.66203e-12 2.86464e-11 5.05072e-11 -2.39451e-11 1.68049e-10 6.95239e-11 -2.28793e-11 1.34486e-10 7.43311e-11 -2.30215e-11 1.20303e-10 5.84659e-11 -2.36786e-11 1.61134e-10 3.07054e-11 -2.73855e-11 2.06169e-10 8.57141e-11 -1.98625e-11 1.00653e-10 9.82976e-11 -7.37921e-12 4.42319e-11 5.18946e-11 -2.6167e-11 1.93205e-10 7.45927e-11 -2.38128e-11 1.45298e-10 2.13994e-11 -2.76181e-11 2.21476e-10 8.93528e-11 -2.08373e-11 1.10686e-10 9.05156e-11 -2.1273e-11 1.15441e-10 
</DataArray>
<DataArray type="Float32" Name="Active" NumberOfComponents="1" >
1 1 1 1 1 1 1 1 1 1 1 1 1 1 1 1 1 1 1 1 1 1 1 1 1 1 1 1 1 1 1 1 1 1 1 1 1 1 1 1 1 1 1 1 1 1 1 1 1 
</DataArray>
</PointData>
<CellData /> 
<Cells>
<DataArray type="Int32" Name="connectivity" format="ascii">
0 1 2 3 4 5 6 7 8 9 10 11 12 13 14 15 16 17 18 19 20 21 22 23 24 25 26 27 28 29 30 31 32 33 34 35 36 37 38 39 40 41 42 43 44 45 46 47 48 </DataArray>
<DataArray type="Int32" Name="offsets" format="ascii">
1 2 3 4 5 6 7 8 9 10 11 12 13 14 15 16 17 18 19 20 21 22 23 24 25 26 27 28 29 30 31 32 33 34 35 36 37 38 39 40 41 42 43 44 45 46 47 48 49 </DataArray>
<DataArray type="UInt8" Name="types" format="ascii">
1 1 1 1 1 1 1 1 1 1 1 1 1 1 1 1 1 1 1 1 1 1 1 1 1 1 1 1 1 1 1 1 1 1 1 1 1 1 1 1 1 1 1 1 1 1 1 1 1 </DataArray>
</Cells>
<Points>
<DataArray type="Float32" Name="Position" NumberOfComponents="3" >
0.00629221 0.00245404 0.0261894 0.00456851 0.00470421 0.0255841 0.00321548 0.00558351 0.0254771 0.00405233 0.00503752 0.0250464 0.00530768 0.00313982 0.0185919 0.00618562 0.00129039 0.0180566 0.00328671 0.00472174 0.0181051 0.00593764 0.0017484 0.0169909 0.00564956 0.00346193 0.0250423 0.00565873 0.00235097 0.0167719 0.00303247 0.00471972 0.0170455 0.00440096 0.00382665 0.0166586 0.00614521 0.000812937 0.0162056 0.00643446 0.00179752 0.0249489 0.0064901 0.00162054 0.0249582 0.00261424 0.00580141 0.0249174 0.00221482 0.00588359 0.024589 0.00288085 0.00565413 0.0246117 0.000187149 0.00621631 0.024523 0.00650912 0.00145253 0.0244026 0.00240697 0.00581493 0.0244352 0.00364987 0.00524204 0.0243743 0.00331979 0.00535104 0.0237745 0.00174274 0.0059105 0.0236208 0.00588759 0.00283189 0.0232062 0.00651816 0.00100455 0.0231953 0.00509005 0.00394007 0.0232231 0.00350353 0.00514424 0.0227888 0.00561261 0.00319906 0.0225926 0.00620944 0.00205462 0.0225632 0.00573142 0.00298224 0.0224156 0.00575984 0.00287908 0.0220037 0.00247059 0.00555384 0.0221713 0.00515201 0.00370484 0.0217089 0.00304332 0.00526845 0.0217917 0.00435919 0.00444831 0.0215577 0.00636858 0.00131783 0.0212817 0.00278204 0.00532277 0.0211175 0.00390616 0.00467761 0.0205554 0.00419724 0.0044661 0.0205405 0.00313029 0.00507252 0.020477 0.00161144 0.00556751 0.0201799 0.00499883 0.00366735 0.0198647 0.00628672 0.00122794 0.0195171 0.00261507 0.00523542 0.0198461 0.00392438 0.00456872 0.0196478 0.00113714 0.0055765 0.0196577 0.00493437 0.00364954 0.01915 0.00488428 0.00366717 0.0189016 
</DataArray>
</Points>
</Piece>
</UnstructuredGrid>
</VTKFile>
