<?xml version="1.0"?>
<VTKFile type="UnstructuredGrid" version="0.1" byte_order="LittleEndian">
<UnstructuredGrid>
<Piece NumberOfPoints="29" NumberOfCells="29">
<PointData Vectors="Particles">
<DataArray type="Float32" Name="Mass" NumberOfComponents="1" >
1.41117e-08 1.41117e-08 1.41117e-08 1.41117e-08 1.41117e-08 1.41117e-08 1.41117e-08 1.41117e-08 1.41117e-08 1.41117e-08 1.41117e-08 1.41117e-08 1.41117e-08 1.41117e-08 1.41117e-08 1.41117e-08 1.41117e-08 1.41117e-08 1.41117e-08 1.41117e-08 1.41117e-08 1.41117e-08 1.41117e-08 1.41117e-08 1.41117e-08 1.41117e-08 1.41117e-08 1.41117e-08 1.41117e-08 
</DataArray>
<DataArray type="Float32" Name="Radius" NumberOfComponents="1" >
0.00015 0.00015 0.00015 0.00015 0.00015 0.00015 0.00015 0.00015 0.00015 0.00015 0.00015 0.00015 0.00015 0.00015 0.00015 0.00015 0.00015 0.00015 0.00015 0.00015 0.00015 0.00015 0.00015 0.00015 0.00015 0.00015 0.00015 0.00015 0.00015 
</DataArray>
<DataArray type="Float32" Name="Velocity" NumberOfComponents="3" >
0.0132871 2.73613e-05 -0.025245 0.0143622 -3.38855e-05 -0.0275408 0.0147552 -5.06997e-05 -0.0283331 0.0133263 5.39898e-05 -0.0254318 0.0155093 -0.000103691 -0.029881 0.015622 -0.000114673 -0.0300918 0.017494 -0.00011407 -0.0333008 0.0118092 0.000155817 -0.0224426 0.0167339 -0.000202771 -0.0318224 0.0173699 -0.000224967 -0.0326991 0.019116 -0.000131418 -0.0355048 0.019557 -0.00013134 -0.0360724 0.018044 -0.000252055 -0.0332214 0.0172915 -0.00027197 -0.0318731 0.0171334 -0.000210107 -0.0312073 0.0142258 -0.000314993 -0.0263128 0.01959 -0.000140869 -0.0355915 0.019041 -0.000149475 -0.0343595 0.0196559 -0.000114202 -0.0350736 0.0209612 -7.34229e-05 -0.0378733 0.00845736 -0.000109155 -0.0153611 0.020849 -8.65846e-05 -0.0376171 0.0167699 6.20709e-05 -0.029035 0.00500875 -5.98799e-05 -0.00926665 0.011657 4.85016e-05 -0.020442 0.0166486 8.38553e-05 -0.0287363 0.0124453 8.40704e-05 -0.021656 0.0132214 0.000133331 -0.0227988 0.0202756 -0.000132825 -0.0367452 
</DataArray>
<DataArray type="Float32" Name="Force" NumberOfComponents="3" >
9.05424e-11 3.39849e-11 6.34993e-11 5.28489e-11 5.74885e-11 5.2654e-11 5.25581e-11 6.07399e-11 4.82747e-11 8.10071e-11 4.69812e-11 4.70647e-11 1.08553e-11 4.96336e-11 4.35713e-11 2.53204e-12 4.59983e-11 4.44068e-11 -4.57275e-11 1.43212e-11 5.46047e-11 1.24259e-10 3.6623e-11 2.14368e-11 -3.60465e-11 1.41575e-11 5.41679e-11 -4.58697e-11 -2.86964e-12 5.45868e-11 -5.2533e-11 3.08825e-12 5.71717e-11 -3.75504e-11 8.9555e-12 6.37574e-11 -8.63915e-11 -2.85249e-11 3.79078e-11 -1.0142e-10 -3.83073e-11 2.88732e-11 -1.16967e-10 -4.22958e-11 1.1194e-11 -1.17117e-10 -5.76134e-11 -2.17965e-11 -8.35738e-11 -1.61889e-11 -1.92516e-12 -8.61814e-11 -1.88658e-11 4.676e-12 -1.67087e-11 -1.67703e-11 -2.65596e-12 5.18511e-11 -9.06136e-13 -2.45661e-11 -5.23075e-11 -1.79551e-11 5.9028e-11 5.58477e-11 -1.34328e-12 -2.51737e-11 -2.34014e-11 -1.45977e-11 3.46082e-11 -3.41326e-11 -7.08219e-12 5.73906e-11 -6.07816e-11 -1.61057e-11 8.30127e-11 -2.00545e-11 -1.21661e-11 4.09194e-11 -5.92877e-11 -1.94755e-11 7.69349e-11 -4.9588e-11 -1.85501e-11 7.00307e-11 1.06228e-10 4.52773e-12 -5.56659e-11 
</DataArray>
<DataArray type="Float32" Name="Active" NumberOfComponents="1" >
0 0 0 0 0 0 0 0 0 0 0 0 1 1 1 1 1 1 1 1 1 1 1 1 1 1 1 1 1 
</DataArray>
</PointData>
<CellData /> 
<Cells>
<DataArray type="Int32" Name="connectivity" format="ascii">
0 1 2 3 4 5 6 7 8 9 10 11 12 13 14 15 16 17 18 19 20 21 22 23 24 25 26 27 28 </DataArray>
<DataArray type="Int32" Name="offsets" format="ascii">
1 2 3 4 5 6 7 8 9 10 11 12 13 14 15 16 17 18 19 20 21 22 23 24 25 26 27 28 29 </DataArray>
<DataArray type="UInt8" Name="types" format="ascii">
1 1 1 1 1 1 1 1 1 1 1 1 1 1 1 1 1 1 1 1 1 1 1 1 1 1 1 1 1 </DataArray>
</Cells>
<Points>
<DataArray type="Float32" Name="Position" NumberOfComponents="3" >
0.018566 0.000939021 -0.023866 0.0189337 0.00128879 -0.0236628 0.0190885 0.00130687 -0.0236627 0.0186945 0.00140837 -0.0238177 0.0193747 0.0014519 -0.0234418 0.019422 0.00148833 -0.0233934 0.0199448 0.00116973 -0.0230977 0.0184155 0.00167329 -0.0239607 0.019943 0.00174949 -0.0230797 0.0202254 0.0018107 -0.0229242 0.020711 0.00131707 -0.0227137 0.0209449 0.0013389 -0.0225435 0.0203817 0.00221048 -0.0219942 0.0201206 0.00248702 -0.0218352 0.0197382 0.00267584 -0.0210591 0.019066 0.00315452 -0.0214558 0.0202731 0.00169452 -0.0209155 0.01994 0.00211321 -0.0204539 0.0193055 0.00206268 -0.0186851 0.0187713 0.000821829 -0.016842 0.0164932 0.00328639 -0.0202646 0.0186199 0.00107429 -0.0165348 0.0170778 0.00354683 -0.015299 0.0159071 0.00155532 -0.0221713 0.0163423 0.00398684 -0.017227 0.0167208 0.00363216 -0.0145644 0.0162379 0.00406562 -0.016405 0.0159995 0.00414318 -0.0153085 0.0172703 0.00152634 -0.0134898 
</DataArray>
</Points>
</Piece>
</UnstructuredGrid>
</VTKFile>
