<?xml version="1.0"?>
<VTKFile type="UnstructuredGrid" version="0.1" byte_order="LittleEndian">
<UnstructuredGrid>
<Piece NumberOfPoints="163" NumberOfCells="163">
<PointData Vectors="Particles">
<DataArray type="Float32" Name="Mass" NumberOfComponents="1" >
1.41117e-08 1.41117e-08 1.41117e-08 1.41117e-08 1.41117e-08 1.41117e-08 1.41117e-08 1.41117e-08 1.41117e-08 1.41117e-08 1.41117e-08 1.41117e-08 1.41117e-08 1.41117e-08 1.41117e-08 1.41117e-08 1.41117e-08 1.41117e-08 1.41117e-08 1.41117e-08 1.41117e-08 1.41117e-08 1.41117e-08 1.41117e-08 1.41117e-08 1.41117e-08 1.41117e-08 1.41117e-08 1.41117e-08 1.41117e-08 1.41117e-08 1.41117e-08 1.41117e-08 1.41117e-08 1.41117e-08 1.41117e-08 1.41117e-08 1.41117e-08 1.41117e-08 1.41117e-08 1.41117e-08 1.41117e-08 1.41117e-08 1.41117e-08 1.41117e-08 1.41117e-08 1.41117e-08 1.41117e-08 1.41117e-08 1.41117e-08 1.41117e-08 1.41117e-08 1.41117e-08 1.41117e-08 1.41117e-08 1.41117e-08 1.41117e-08 1.41117e-08 1.41117e-08 1.41117e-08 1.41117e-08 1.41117e-08 1.41117e-08 1.41117e-08 1.41117e-08 1.41117e-08 1.41117e-08 1.41117e-08 1.41117e-08 1.41117e-08 1.41117e-08 1.41117e-08 1.41117e-08 1.41117e-08 1.41117e-08 1.41117e-08 1.41117e-08 1.41117e-08 1.41117e-08 1.41117e-08 1.41117e-08 1.41117e-08 1.41117e-08 1.41117e-08 1.41117e-08 1.41117e-08 1.41117e-08 1.41117e-08 1.41117e-08 1.41117e-08 1.41117e-08 1.41117e-08 1.41117e-08 1.41117e-08 1.41117e-08 1.41117e-08 1.41117e-08 1.41117e-08 1.41117e-08 1.41117e-08 1.41117e-08 1.41117e-08 1.41117e-08 1.41117e-08 1.41117e-08 1.41117e-08 1.41117e-08 1.41117e-08 1.41117e-08 1.41117e-08 1.41117e-08 1.41117e-08 1.41117e-08 1.41117e-08 1.41117e-08 1.41117e-08 1.41117e-08 1.41117e-08 1.41117e-08 1.41117e-08 1.41117e-08 1.41117e-08 1.41117e-08 1.41117e-08 1.41117e-08 1.41117e-08 1.41117e-08 1.41117e-08 1.41117e-08 1.41117e-08 1.41117e-08 1.41117e-08 1.41117e-08 1.41117e-08 1.41117e-08 1.41117e-08 1.41117e-08 1.41117e-08 1.41117e-08 1.41117e-08 1.41117e-08 1.41117e-08 1.41117e-08 1.41117e-08 1.41117e-08 1.41117e-08 1.41117e-08 1.41117e-08 1.41117e-08 1.41117e-08 1.41117e-08 1.41117e-08 1.41117e-08 1.41117e-08 1.41117e-08 1.41117e-08 1.41117e-08 1.41117e-08 1.41117e-08 1.41117e-08 1.41117e-08 1.41117e-08 1.41117e-08 
</DataArray>
<DataArray type="Float32" Name="Radius" NumberOfComponents="1" >
0.00015 0.00015 0.00015 0.00015 0.00015 0.00015 0.00015 0.00015 0.00015 0.00015 0.00015 0.00015 0.00015 0.00015 0.00015 0.00015 0.00015 0.00015 0.00015 0.00015 0.00015 0.00015 0.00015 0.00015 0.00015 0.00015 0.00015 0.00015 0.00015 0.00015 0.00015 0.00015 0.00015 0.00015 0.00015 0.00015 0.00015 0.00015 0.00015 0.00015 0.00015 0.00015 0.00015 0.00015 0.00015 0.00015 0.00015 0.00015 0.00015 0.00015 0.00015 0.00015 0.00015 0.00015 0.00015 0.00015 0.00015 0.00015 0.00015 0.00015 0.00015 0.00015 0.00015 0.00015 0.00015 0.00015 0.00015 0.00015 0.00015 0.00015 0.00015 0.00015 0.00015 0.00015 0.00015 0.00015 0.00015 0.00015 0.00015 0.00015 0.00015 0.00015 0.00015 0.00015 0.00015 0.00015 0.00015 0.00015 0.00015 0.00015 0.00015 0.00015 0.00015 0.00015 0.00015 0.00015 0.00015 0.00015 0.00015 0.00015 0.00015 0.00015 0.00015 0.00015 0.00015 0.00015 0.00015 0.00015 0.00015 0.00015 0.00015 0.00015 0.00015 0.00015 0.00015 0.00015 0.00015 0.00015 0.00015 0.00015 0.00015 0.00015 0.00015 0.00015 0.00015 0.00015 0.00015 0.00015 0.00015 0.00015 0.00015 0.00015 0.00015 0.00015 0.00015 0.00015 0.00015 0.00015 0.00015 0.00015 0.00015 0.00015 0.00015 0.00015 0.00015 0.00015 0.00015 0.00015 0.00015 0.00015 0.00015 0.00015 0.00015 0.00015 0.00015 0.00015 0.00015 0.00015 0.00015 0.00015 0.00015 0.00015 0.00015 
</DataArray>
<DataArray type="Float32" Name="Velocity" NumberOfComponents="3" >
-6.1912e-05 7.55606e-05 -0.0244864 -0.000112989 -1.96446e-06 -0.0241939 0.000108038 6.43442e-05 -0.0248926 -9.65182e-05 2.58797e-05 -0.0244939 0.000119465 -3.97898e-05 -0.024301 -0.000105682 7.34585e-06 -0.0244556 0.00014688 1.08528e-05 -0.0247712 1.47808e-05 5.26786e-05 -0.0244412 -0.000103622 5.97488e-05 -0.0246106 0.000145949 -3.64791e-05 -0.0244658 1.83042e-05 -3.91575e-06 -0.0243785 -3.96565e-05 -3.03979e-05 -0.0243915 -3.31855e-05 -2.59946e-05 -0.0243285 -0.000101505 5.00447e-05 -0.0248673 4.2934e-05 9.57702e-06 -0.0245968 0.000146089 -4.64372e-05 -0.0246288 -4.91901e-06 1.2609e-05 -0.0244199 -6.09665e-05 0.000106909 -0.0252391 0.000122651 5.64291e-05 -0.0253903 0.000143961 -3.49712e-05 -0.0248909 3.27862e-05 1.94331e-05 -0.0246053 -5.9274e-05 0.000103825 -0.0253896 9.64779e-05 4.02227e-05 -0.0252022 0.000144789 -3.5085e-05 -0.0249076 7.7395e-05 4.58724e-05 -0.0248855 4.29809e-05 1.7938e-05 -0.0250181 -0.000100479 0.000101724 -0.0253547 -5.59795e-05 9.51848e-05 -0.0255205 -0.000107737 4.50448e-05 -0.0254334 -1.0716e-05 2.71362e-06 -0.0247189 -9.02507e-05 -1.63284e-05 -0.0251629 -9.84122e-05 1.06803e-05 -0.0253194 -0.000104898 5.27385e-05 -0.0254995 0.000107179 6.72953e-05 -0.0257923 0.000153485 -2.14926e-05 -0.0253029 0.000125236 6.12336e-05 -0.0257303 0.00011996 6.19804e-05 -0.0259625 0.000147458 3.7786e-05 -0.0260876 -0.00012201 0.000101639 -0.0257496 0.000110729 7.28209e-05 -0.0261198 0.000118723 -2.53187e-05 -0.025216 -7.42306e-05 1.35121e-05 -0.0236658 0.000121256 8.54762e-07 -0.0236338 2.92673e-05 1.49393e-05 -0.0235793 -8.90155e-05 2.62738e-05 -0.0240802 -8.80364e-05 -3.12779e-05 -0.0238065 6.91514e-05 1.21053e-05 -0.0236801 5.33718e-05 7.15277e-06 -0.0237762 0.000140105 -3.55156e-05 -0.0238688 -9.65969e-05 -1.82394e-05 -0.0239153 0.000106133 4.77016e-06 -0.0238181 0.000101381 1.10152e-05 -0.023839 -9.90316e-05 -3.19513e-05 -0.0255712 0.000126808 6.83681e-05 -0.026052 -1.69977e-06 2.58228e-06 -0.0251731 0.000137058 5.0578e-05 -0.0261888 0.000161749 -3.44534e-05 -0.0256961 -0.000134823 3.81183e-06 -0.0257029 -0.000103529 1.79817e-05 -0.0256094 -0.000109891 5.93848e-05 -0.0260511 -9.05706e-05 8.121e-05 -0.0259955 -7.31006e-05 0.000131098 -0.0262564 6.43323e-05 5.99068e-05 -0.025654 -0.000123095 9.37059e-05 -0.0261594 -0.00011425 6.28423e-06 -0.0259509 0.000107719 6.45929e-05 -0.0262689 -9.18538e-06 9.97516e-05 -0.025972 -4.12047e-05 -4.02698e-05 -0.0254273 -0.000110642 -3.2141e-05 -0.0261982 -0.000111683 6.00893e-05 -0.0262972 -0.000141941 2.11978e-06 -0.0261821 0.00011696 7.4458e-05 -0.0265927 3.36869e-05 4.284e-05 -0.0261715 -4.77165e-05 0.000102975 -0.0264818 -3.41241e-05 0.000101708 -0.0265853 0.000167092 -6.26102e-05 -0.0265682 5.08167e-05 -2.78119e-05 -0.0261782 1.94461e-05 3.65637e-05 -0.0263526 8.38282e-05 -4.24644e-05 -0.0262187 0.000160067 7.15751e-05 -0.0273017 0.000160539 7.22213e-05 -0.0273328 -0.000121795 7.92245e-06 -0.0269067 0.000157208 3.82492e-05 -0.0274792 0.000174591 -7.11261e-05 -0.0269671 -0.000135199 -4.7092e-05 -0.0270023 4.31516e-05 -2.84699e-05 -0.0264428 0.000166563 -6.93136e-05 -0.0268452 0.000176893 -4.1365e-05 -0.0270035 1.7719e-05 4.8105e-05 -0.0267523 -0.000148028 -1.28388e-06 -0.0270584 -0.000171249 -2.4595e-05 -0.0271185 -0.000151636 -2.80554e-05 -0.0269426 0.000153169 6.91309e-05 -0.0277369 -0.000141309 -4.81075e-05 -0.0270405 -3.29362e-05 8.68366e-05 -0.0271714 7.55211e-05 8.20364e-05 -0.0271066 -4.89863e-05 -2.33754e-05 -0.0266448 0.000132603 6.87075e-05 -0.027221 -2.51378e-05 7.20445e-05 -0.0273154 0.000114999 -5.66104e-05 -0.0269405 -2.99947e-05 -2.48626e-05 -0.0269182 0.000158948 7.71474e-05 -0.028074 -0.000181141 -4.64589e-05 -0.0276693 0.000188343 -8.27797e-05 -0.0276253 0.000148392 9.90604e-05 -0.02798 0.000162354 -1.00798e-05 -0.0278723 -0.000140488 8.1112e-05 -0.0280566 0.000166031 9.31e-05 -0.0280122 -0.000101766 -5.33108e-05 -0.027047 -0.000141123 6.2393e-05 -0.028133 1.83151e-05 7.99256e-05 -0.0276061 0.000116665 -6.21774e-05 -0.0272256 0.000177761 -8.66099e-05 -0.0275198 -0.000171316 -6.02475e-05 -0.0277889 -0.000175471 -5.3909e-05 -0.0278629 8.12956e-05 8.74307e-05 -0.0277412 -0.000191582 -5.52509e-05 -0.0279959 -0.000198223 -4.58854e-05 -0.0280577 -0.000122949 -5.65449e-05 -0.0272937 -0.000209411 -2.91728e-05 -0.0281879 -0.000184424 -6.60818e-05 -0.0281682 0.000182694 2.75114e-05 -0.0287017 -8.43752e-05 -4.79196e-05 -0.027476 0.000183289 -8.81505e-05 -0.0278263 0.000198247 4.09049e-05 -0.0288844 -0.000171819 0.000134405 -0.0284045 -0.00018944 0.000133021 -0.0286696 0.000184126 0.000110981 -0.0287856 0.000155477 0.00011158 -0.0285188 -0.000124339 0.000116763 -0.0283161 0.000191397 0.000106916 -0.0289176 -0.000187427 4.47733e-05 -0.0290594 -0.000181949 1.38684e-05 -0.0287994 -0.000178956 5.49022e-05 -0.0291398 -0.000134716 0.000120071 -0.028511 -0.0002086 9.84263e-05 -0.0290462 -0.000212806 0.000105493 -0.0290135 0.000237178 -8.21333e-05 -0.0289062 -0.000183876 6.41922e-05 -0.029339 0.000179319 -0.000101756 -0.0285137 -0.000225232 0.000127663 -0.0293189 -0.000220443 0.000131122 -0.0292429 0.000175071 0.000120327 -0.0290967 0.000213161 2.09841e-05 -0.0295386 0.000227201 -0.000116534 -0.0287996 -0.000210645 4.27203e-05 -0.0295122 -0.000195015 7.06062e-05 -0.029517 0.000228727 -0.000123999 -0.0290328 -0.000196527 -7.31986e-05 -0.0285992 -0.000222707 9.88047e-05 -0.0293304 0.000164037 0.000113436 -0.0290478 -0.000228739 0.000154379 -0.0295499 0.000240881 -0.000109046 -0.0291934 0.000159301 0.000106078 -0.0290061 -0.000204981 -7.65771e-05 -0.0287798 0.000213545 -0.000122947 -0.0288438 0.000256213 -8.33952e-05 -0.0294608 -7.35685e-05 9.65744e-05 -0.0290134 8.10797e-05 0.00010436 -0.0291482 -0.000170717 -7.88864e-05 -0.0285903 0.000232022 -5.0181e-05 -0.02957 0.000140273 8.98134e-05 -0.0290387 0.000239007 -6.27426e-05 -0.0293409 
</DataArray>
<DataArray type="Float32" Name="Force" NumberOfComponents="3" >
6.77295e-13 1.35964e-11 5.39966e-12 -4.26322e-12 1.97272e-12 -2.15495e-12 3.22435e-12 3.66694e-12 1.92396e-12 -5.31246e-12 1.45141e-12 -1.68468e-12 6.28538e-12 1.01859e-12 5.76755e-12 -1.79091e-13 4.73515e-13 -1.61877e-12 -1.25112e-12 -5.18863e-14 -3.78588e-12 4.4907e-12 1.36118e-11 1.23581e-11 -4.76294e-12 3.84654e-12 1.82075e-12 -3.66896e-14 -1.91016e-12 8.84014e-13 -5.11145e-12 -3.79576e-12 1.47855e-11 -5.28713e-12 -7.44785e-12 1.00139e-11 -4.90229e-12 -7.43569e-12 1.14219e-11 -1.35879e-12 3.98693e-12 1.02805e-12 -1.04332e-12 5.53105e-12 1.19728e-11 2.23549e-12 -1.17502e-12 4.62012e-13 -4.79205e-12 -7.151e-12 1.53032e-11 2.89639e-13 1.32535e-11 3.92006e-12 5.87533e-12 2.44695e-12 -2.46558e-13 1.70439e-12 -6.95189e-13 2.52137e-12 1.23695e-12 5.14133e-12 9.35263e-12 -2.8414e-13 1.26576e-11 2.92913e-12 3.442e-12 6.52426e-12 5.16226e-12 1.52768e-12 -9.57778e-13 2.39239e-12 5.11591e-13 7.39807e-12 1.15001e-11 -1.05861e-12 7.18462e-12 1.32814e-11 -3.45994e-12 7.5912e-12 -2.72033e-12 -1.36778e-12 1.18076e-11 3.45515e-12 -1.54399e-12 2.49012e-12 -1.87618e-12 -5.04464e-12 -8.04703e-12 1.51989e-11 -8.28403e-12 -4.22398e-12 5.39044e-12 -1.00907e-12 -4.07879e-13 -8.3822e-13 -6.96683e-13 2.83027e-12 -1.39376e-12 6.89265e-12 3.59042e-12 3.91143e-13 4.94302e-12 -6.09315e-12 6.53444e-12 2.29721e-12 3.62461e-12 3.82159e-13 2.14066e-12 2.41134e-12 -5.67761e-12 -1.47908e-13 1.59266e-12 -1.00576e-11 -1.17903e-12 5.8182e-12 -5.87429e-12 3.02989e-12 3.22006e-12 -5.2182e-12 1.67133e-12 -6.66562e-12 1.43127e-11 -2.9014e-12 -1.57759e-13 -6.77046e-14 4.47837e-12 -3.83452e-12 6.7855e-12 -6.96944e-12 -3.01876e-12 1.26288e-11 -5.37345e-12 1.76642e-12 -1.56128e-12 -4.99085e-12 1.98966e-12 6.40739e-13 -3.00092e-12 -5.65796e-12 1.42122e-11 -4.70776e-12 -4.77076e-12 1.2864e-11 1.43417e-12 -2.34546e-13 -2.42402e-13 -4.88494e-12 2.30773e-12 -7.02949e-13 2.54577e-12 -6.45035e-12 1.24553e-11 1.63924e-12 -7.78921e-12 1.47426e-11 -6.47856e-12 -3.68821e-12 1.83735e-12 6.95697e-12 2.73297e-12 -1.55313e-12 -1.72369e-12 -5.10922e-12 1.87897e-11 1.33196e-12 1.93446e-12 -8.22894e-12 1.7754e-12 -1.64983e-12 -2.52875e-12 -3.41924e-12 -7.20389e-13 -2.968e-12 -2.55947e-12 1.27886e-12 -2.10543e-12 -7.66112e-13 2.52557e-12 -3.49698e-12 -5.30912e-12 9.78793e-12 2.14126e-12 -7.35099e-12 6.02812e-12 -2.14485e-12 -4.14401e-13 6.70923e-12 1.25594e-11 -1.02979e-12 3.64347e-12 -6.18419e-12 -2.50236e-12 -1.62923e-12 -4.51031e-12 5.98747e-12 7.27238e-12 4.47827e-12 -6.86322e-12 5.45771e-12 1.12198e-11 -8.19064e-12 -7.92305e-12 1.24859e-11 -6.72229e-12 -6.8828e-12 2.70064e-12 -1.07419e-12 1.9438e-12 -4.63106e-12 -5.08165e-12 -1.7779e-12 -4.56983e-12 7.4662e-12 6.41083e-12 4.1466e-12 -2.46111e-12 7.41373e-12 1.51791e-11 -8.66378e-12 2.93108e-12 1.23219e-11 -1.01136e-11 1.89488e-12 1.29419e-11 4.01802e-12 -6.70251e-12 -7.11889e-13 -1.7146e-12 -3.88545e-12 1.90958e-11 -5.31822e-12 5.29976e-12 1.81622e-11 -1.62173e-12 -7.47105e-12 1.99303e-11 7.01357e-12 4.38892e-12 -3.28743e-12 7.20075e-12 4.43947e-12 -3.13663e-12 -5.36385e-12 -1.93283e-12 -8.51852e-12 4.1137e-12 5.73356e-13 -1.31629e-11 4.75836e-12 -7.90111e-12 -3.28117e-12 -9.81392e-12 -6.72507e-12 1.52737e-12 -1.22577e-12 -4.93637e-12 2.10092e-11 3.6589e-12 -1.02531e-11 1.02747e-11 4.32703e-12 -2.45432e-12 -5.50877e-12 -5.66436e-12 7.1694e-12 1.9618e-11 -7.48469e-12 -2.79514e-12 -6.14708e-12 -9.56491e-12 -3.32291e-12 -4.69655e-12 -1.22632e-11 -2.74593e-12 7.32169e-12 7.28251e-12 2.29544e-12 -1.22096e-11 -1.43853e-11 -3.28221e-12 9.23677e-12 -1.34287e-11 1.0467e-12 1.79e-11 2.16618e-12 4.32641e-12 1.54192e-11 -9.20624e-12 -7.65376e-12 2.51524e-11 1.81914e-12 7.88988e-12 1.33378e-11 -1.22091e-11 2.99141e-12 1.99499e-11 2.84707e-12 -7.43913e-12 2.22786e-11 -7.64556e-12 -6.9623e-12 2.76407e-11 9.4349e-12 2.72781e-12 -1.24533e-11 -1.19694e-11 -3.5619e-12 -5.44664e-12 6.10753e-12 -8.43465e-12 -4.45269e-12 7.71777e-12 7.63604e-12 6.54427e-12 4.46752e-12 -4.41117e-12 -1.14098e-11 -6.5921e-12 7.7236e-13 -1.107e-11 8.95681e-12 6.84098e-12 2.03584e-12 -1.49126e-11 -2.46337e-12 2.04735e-11 -6.82634e-12 5.26223e-13 -1.0641e-11 -4.06794e-12 9.08401e-12 2.15617e-11 2.74593e-12 -8.2347e-12 2.42803e-11 8.34157e-12 -9.86378e-12 1.14071e-11 -1.38677e-11 -5.60928e-12 -2.01646e-14 -1.40905e-11 -6.52202e-12 4.13818e-12 4.07435e-12 3.87728e-12 1.78934e-11 -1.4549e-11 -3.83879e-12 -4.95256e-12 -1.38779e-11 -3.39137e-12 -5.90073e-12 -1.59046e-11 -3.62517e-12 2.05732e-11 -1.17482e-11 -3.84646e-12 -4.93402e-12 -1.53184e-11 -6.56325e-12 4.74239e-15 1.03197e-11 1.42572e-13 -1.62979e-11 -1.21903e-11 -1.0662e-11 2.84618e-11 8.61037e-12 -1.096e-11 1.65575e-11 1.21748e-11 8.44628e-13 -1.50768e-11 -1.66334e-11 4.95483e-12 2.71077e-12 -1.78196e-11 2.76018e-12 -1.35675e-12 1.18779e-11 6.18656e-12 4.84097e-12 7.81118e-12 8.25423e-12 1.15704e-11 -1.46147e-11 5.98255e-12 1.83421e-11 1.15842e-11 8.31412e-12 -2.73382e-12 -1.3197e-11 5.20325e-13 -1.17127e-11 -1.46532e-11 -8.63287e-13 -1.26611e-11 -1.30371e-11 8.48086e-13 -1.30824e-11 -1.49795e-11 6.42549e-12 1.84242e-11 -1.6671e-11 1.64816e-12 -6.02538e-12 -1.74063e-11 1.86177e-12 -5.38786e-12 1.32649e-11 -6.85037e-12 -7.24027e-12 -1.45515e-11 1.00481e-12 -1.33729e-11 4.51945e-12 -1.43027e-11 2.37394e-11 -1.93314e-11 2.77316e-12 -4.7651e-12 -1.90969e-11 2.80377e-12 -3.75496e-12 1.20081e-11 6.04697e-12 1.19834e-11 1.41666e-11 -5.84431e-13 -1.66458e-11 1.11907e-11 -1.23837e-11 -1.32884e-13 -1.55778e-11 -2.29678e-13 -1.25656e-11 -1.67281e-11 7.56166e-13 -1.27939e-11 1.19995e-11 -1.23632e-11 -3.11711e-12 -1.73088e-11 -6.34967e-12 2.21904e-11 -1.82088e-11 2.01173e-12 -6.18452e-12 1.03845e-11 7.6984e-12 1.61034e-11 -2.18722e-11 6.63368e-12 4.48e-12 1.41522e-11 -9.50111e-12 -7.81912e-12 9.72376e-12 7.93536e-12 1.77811e-11 -1.70394e-11 -7.22169e-12 2.30629e-11 9.42297e-12 -1.35232e-11 1.82982e-11 1.52617e-11 -7.43863e-12 -8.94784e-12 -1.01107e-11 8.20412e-12 3.03016e-11 3.5639e-12 6.43734e-12 2.89147e-11 -1.52817e-11 -9.85308e-12 2.88119e-11 1.46114e-11 -7.22775e-12 -1.01578e-11 8.18477e-12 7.63026e-12 2.2141e-11 1.42856e-11 -6.95037e-12 -9.11754e-12 
</DataArray>
<DataArray type="Float32" Name="Active" NumberOfComponents="1" >
1 1 1 1 1 1 1 1 1 1 1 1 1 1 1 1 1 1 1 1 1 1 1 1 1 1 1 1 1 1 1 1 1 1 1 1 1 1 1 1 1 1 1 1 1 1 1 1 1 1 1 1 1 1 1 1 1 1 1 1 1 1 1 1 1 1 1 1 1 1 1 1 1 1 1 1 1 1 1 1 1 1 1 1 1 1 1 1 1 1 1 1 1 1 1 1 1 1 1 1 1 1 1 1 1 1 1 1 1 1 1 1 1 1 1 1 1 1 1 1 1 1 1 1 1 1 1 1 1 1 1 1 1 1 1 1 1 1 1 1 1 1 1 1 1 1 1 1 1 1 1 1 1 1 1 1 1 1 1 1 1 1 1 
</DataArray>
</PointData>
<CellData /> 
<Cells>
<DataArray type="Int32" Name="connectivity" format="ascii">
0 1 2 3 4 5 6 7 8 9 10 11 12 13 14 15 16 17 18 19 20 21 22 23 24 25 26 27 28 29 30 31 32 33 34 35 36 37 38 39 40 41 42 43 44 45 46 47 48 49 50 51 52 53 54 55 56 57 58 59 60 61 62 63 64 65 66 67 68 69 70 71 72 73 74 75 76 77 78 79 80 81 82 83 84 85 86 87 88 89 90 91 92 93 94 95 96 97 98 99 100 101 102 103 104 105 106 107 108 109 110 111 112 113 114 115 116 117 118 119 120 121 122 123 124 125 126 127 128 129 130 131 132 133 134 135 136 137 138 139 140 141 142 143 144 145 146 147 148 149 150 151 152 153 154 155 156 157 158 159 160 161 162 </DataArray>
<DataArray type="Int32" Name="offsets" format="ascii">
1 2 3 4 5 6 7 8 9 10 11 12 13 14 15 16 17 18 19 20 21 22 23 24 25 26 27 28 29 30 31 32 33 34 35 36 37 38 39 40 41 42 43 44 45 46 47 48 49 50 51 52 53 54 55 56 57 58 59 60 61 62 63 64 65 66 67 68 69 70 71 72 73 74 75 76 77 78 79 80 81 82 83 84 85 86 87 88 89 90 91 92 93 94 95 96 97 98 99 100 101 102 103 104 105 106 107 108 109 110 111 112 113 114 115 116 117 118 119 120 121 122 123 124 125 126 127 128 129 130 131 132 133 134 135 136 137 138 139 140 141 142 143 144 145 146 147 148 149 150 151 152 153 154 155 156 157 158 159 160 161 162 163 </DataArray>
<DataArray type="UInt8" Name="types" format="ascii">
1 1 1 1 1 1 1 1 1 1 1 1 1 1 1 1 1 1 1 1 1 1 1 1 1 1 1 1 1 1 1 1 1 1 1 1 1 1 1 1 1 1 1 1 1 1 1 1 1 1 1 1 1 1 1 1 1 1 1 1 1 1 1 1 1 1 1 1 1 1 1 1 1 1 1 1 1 1 1 1 1 1 1 1 1 1 1 1 1 1 1 1 1 1 1 1 1 1 1 1 1 1 1 1 1 1 1 1 1 1 1 1 1 1 1 1 1 1 1 1 1 1 1 1 1 1 1 1 1 1 1 1 1 1 1 1 1 1 1 1 1 1 1 1 1 1 1 1 1 1 1 1 1 1 1 1 1 1 1 1 1 1 1 </DataArray>
</Cells>
<Points>
<DataArray type="Float32" Name="Position" NumberOfComponents="3" >
-0.00631706 -0.00416056 0.0441983 -0.00674345 0.00347886 0.0443153 0.00656855 -0.00363476 0.0439249 -0.00757413 0.000349059 0.044125 0.0057719 0.00490569 0.0441696 -0.00708002 0.00269127 0.0441156 0.00751456 0.000152812 0.0439951 -0.00247333 -0.00713894 0.0440602 -0.00728377 -0.00206661 0.0439263 0.00683179 0.00326083 0.0439571 0.000245884 0.00756289 0.0439062 -0.002889 0.00696361 0.0439099 -0.00267942 0.00704359 0.0439178 -0.00745751 -0.00110818 0.0436749 4.86155e-05 -0.0075287 0.0437344 0.00709769 0.00255724 0.0437434 -0.0013456 0.00741369 0.0436701 -0.00615282 -0.00426159 0.0433065 0.00581049 -0.00464382 0.0432354 0.00640885 0.00393057 0.043452 -0.000961494 -0.00747038 0.0435807 -0.00596182 -0.00448669 0.043158 0.00412917 -0.00622124 0.0432286 0.00642954 0.00389568 0.0434254 0.00172551 -0.00729532 0.0433027 0.000271689 -0.00748874 0.0432223 -0.00674493 -0.00321714 0.0430625 -0.00562369 -0.00487486 0.0429477 -0.00746848 -0.000373861 0.0430089 -0.00140437 0.00736758 0.0432859 -0.00367523 0.00648454 0.0430865 -0.00721836 0.00199994 0.0429956 -0.00745008 -0.000740719 0.0429299 0.00504933 -0.00539322 0.0427275 0.00506723 0.00550171 0.0429436 0.00612939 -0.00415801 0.0427475 0.0069074 -0.00258057 0.0426081 0.00717683 -0.00162919 0.0425118 -0.00688363 -0.00285813 0.042619 0.0068065 -0.00283136 0.0424302 0.00303401 0.00683265 0.0428022 -0.00757423 0.00115355 0.0449482 0.00484394 0.00591588 0.0448621 -5.92507e-05 0.00764328 0.0449053 -0.00762185 0.000158749 0.0446765 -0.00636904 0.0041597 0.0447354 0.0014535 0.00750819 0.044721 0.000981742 0.00756295 0.0446581 0.00690542 0.00323618 0.0446926 -0.00650094 0.00392344 0.0445941 0.00311504 0.00696306 0.0446197 0.00259195 0.00717314 0.0445264 -0.00539628 0.00508956 0.0426326 0.0052941 -0.00513174 0.0424503 -0.000169028 0.00745291 0.042815 0.00701635 -0.00217959 0.0423307 0.00723651 0.00167913 0.0425324 -0.00663336 0.00335776 0.0425139 -0.00737505 0.00117975 0.0425711 -0.00735745 -0.00099128 0.0422407 -0.00441633 -0.00591471 0.0422351 -0.00598412 -0.00430276 0.0420869 0.00112787 -0.0073273 0.0423426 -0.0070152 -0.00236576 0.0421438 -0.00692866 0.00264051 0.0422678 0.00427096 -0.00599155 0.0420556 -0.00277901 -0.006835 0.042148 -0.0020526 0.00713016 0.0423284 -0.00498779 0.00543219 0.0419939 -0.0073388 -0.000956039 0.0419405 -0.00659156 0.00332819 0.0419296 0.00459098 -0.00569505 0.041664 -0.000106094 -0.00734796 0.0416993 -0.00310668 -0.00662024 0.0414426 -0.00284154 -0.00673284 0.0413616 0.00666219 0.00311715 0.0414201 0.00124601 0.00724922 0.0415044 -0.00063516 -0.00731099 0.0414215 0.00207103 0.00705164 0.0414477 0.00551587 -0.00469543 0.0409703 0.00548139 -0.0047283 0.040939 -0.00705743 0.00196791 0.0411392 0.00706125 -0.00147709 0.0408086 0.00658421 0.00319228 0.0409859 -0.00491314 0.00537192 0.0409604 0.00108719 0.00723362 0.0411619 0.00484823 0.00547409 0.0409407 0.0070431 0.00189155 0.0409305 -0.000435342 -0.00727155 0.0409472 -0.00667862 0.00291324 0.0408773 -0.0061464 0.00389719 0.040787 -0.00364953 0.00626775 0.0408097 0.00679566 -0.00235292 0.0404394 -0.00320959 0.00649483 0.0406721 -0.00197047 -0.00696565 0.0405492 0.00126178 -0.00714836 0.0405826 -0.000860781 0.00723983 0.0407992 0.00330036 -0.00644077 0.0405032 -0.00149657 -0.0070628 0.0403779 0.00257064 0.00681318 0.0404701 -0.000340814 0.007236 0.0404985 0.00672385 -0.00245966 0.040052 -0.00578738 0.00430226 0.0401383 0.00654611 0.00309883 0.0401642 0.00430551 -0.00571164 0.0399054 0.00716205 0.000656498 0.040058 -0.0070218 -0.00166743 0.0399064 0.00480477 -0.00529349 0.0399209 -0.0018667 0.00700125 0.0402855 -0.00715739 -0.000939627 0.0398293 -4.09905e-05 -0.00718536 0.0399215 0.00252742 0.00679576 0.040098 0.00442434 0.00572893 0.0400375 -0.00516911 0.00499465 0.0398886 -0.00462164 0.00549519 0.0398089 0.0012279 -0.00707544 0.039799 -0.00559445 0.00449847 0.0396903 -0.00581384 0.00419346 0.0396655 -0.00207421 0.00690189 0.0399556 -0.0061307 0.00372491 0.039499 -0.00500665 0.00510806 0.0395158 0.00700355 -0.00111283 0.0393206 -0.00101564 0.00710934 0.0397007 0.00410543 0.00589441 0.0395655 0.00690628 -0.00153842 0.0390937 -0.00536903 -0.00467096 0.0393013 -0.00578298 -0.00412445 0.0390657 0.00455165 -0.00540841 0.0389076 0.00364747 -0.00609058 0.0390142 -0.00311721 -0.00637779 0.0390648 0.00578279 -0.00406775 0.038833 -0.00711834 -4.26878e-06 0.0387402 -0.00704061 0.0012383 0.0388852 -0.00708881 -0.000536418 0.0386416 -0.00314482 -0.00633863 0.038814 -0.00651694 -0.00280725 0.0385866 -0.00638257 -0.00308755 0.0385793 0.00672816 0.00233844 0.0386337 -0.00702331 -0.000947321 0.0383857 0.00345919 0.00621204 0.0387021 -0.00603546 -0.00364144 0.0383661 -0.00595682 -0.00378034 0.0384524 0.00376194 -0.00593002 0.0383517 0.00693838 -0.00100669 0.0383102 0.00606546 0.00369107 0.0385292 -0.0070731 0.000123404 0.0381842 -0.00695107 -0.00120174 0.0381528 0.00623918 0.00336685 0.0383881 -0.0023745 0.0066445 0.0384961 -0.00649779 -0.0027705 0.0382453 0.00315905 -0.00626734 0.0382039 -0.00497538 -0.00493 0.0379945 0.00648721 0.00281277 0.038226 0.0029241 -0.00637443 0.0381932 -0.00234901 0.0066312 0.0382567 0.00412575 0.00573941 0.0382676 0.00671445 0.00216681 0.0379841 -0.00120307 -0.00689537 0.0380919 0.000933234 -0.00692269 0.0379428 -0.00169637 0.00684693 0.0382866 0.00692074 0.00131334 0.0379385 0.00210064 -0.00668014 0.0381136 0.00684221 0.00172082 0.0380973 
</DataArray>
</Points>
</Piece>
</UnstructuredGrid>
</VTKFile>
