<?xml version="1.0"?>
<VTKFile type="UnstructuredGrid" version="0.1" byte_order="LittleEndian">
<UnstructuredGrid>
<Piece NumberOfPoints="318" NumberOfCells="318">
<PointData Vectors="Particles">
<DataArray type="Float32" Name="Mass" NumberOfComponents="1" >
1.41117e-08 1.41117e-08 1.41117e-08 1.41117e-08 1.41117e-08 1.41117e-08 1.41117e-08 1.41117e-08 1.41117e-08 1.41117e-08 1.41117e-08 1.41117e-08 1.41117e-08 1.41117e-08 1.41117e-08 1.41117e-08 1.41117e-08 1.41117e-08 1.41117e-08 1.41117e-08 1.41117e-08 1.41117e-08 1.41117e-08 1.41117e-08 1.41117e-08 1.41117e-08 1.41117e-08 1.41117e-08 1.41117e-08 1.41117e-08 1.41117e-08 1.41117e-08 1.41117e-08 1.41117e-08 1.41117e-08 1.41117e-08 1.41117e-08 1.41117e-08 1.41117e-08 1.41117e-08 1.41117e-08 1.41117e-08 1.41117e-08 1.41117e-08 1.41117e-08 1.41117e-08 1.41117e-08 1.41117e-08 1.41117e-08 1.41117e-08 1.41117e-08 1.41117e-08 1.41117e-08 1.41117e-08 1.41117e-08 1.41117e-08 1.41117e-08 1.41117e-08 1.41117e-08 1.41117e-08 1.41117e-08 1.41117e-08 1.41117e-08 1.41117e-08 1.41117e-08 1.41117e-08 1.41117e-08 1.41117e-08 1.41117e-08 1.41117e-08 1.41117e-08 1.41117e-08 1.41117e-08 1.41117e-08 1.41117e-08 1.41117e-08 1.41117e-08 1.41117e-08 1.41117e-08 1.41117e-08 1.41117e-08 1.41117e-08 1.41117e-08 1.41117e-08 1.41117e-08 1.41117e-08 1.41117e-08 1.41117e-08 1.41117e-08 1.41117e-08 1.41117e-08 1.41117e-08 1.41117e-08 1.41117e-08 1.41117e-08 1.41117e-08 1.41117e-08 1.41117e-08 1.41117e-08 1.41117e-08 1.41117e-08 1.41117e-08 1.41117e-08 1.41117e-08 1.41117e-08 1.41117e-08 1.41117e-08 1.41117e-08 1.41117e-08 1.41117e-08 1.41117e-08 1.41117e-08 1.41117e-08 1.41117e-08 1.41117e-08 1.41117e-08 1.41117e-08 1.41117e-08 1.41117e-08 1.41117e-08 1.41117e-08 1.41117e-08 1.41117e-08 1.41117e-08 1.41117e-08 1.41117e-08 1.41117e-08 1.41117e-08 1.41117e-08 1.41117e-08 1.41117e-08 1.41117e-08 1.41117e-08 1.41117e-08 1.41117e-08 1.41117e-08 1.41117e-08 1.41117e-08 1.41117e-08 1.41117e-08 1.41117e-08 1.41117e-08 1.41117e-08 1.41117e-08 1.41117e-08 1.41117e-08 1.41117e-08 1.41117e-08 1.41117e-08 1.41117e-08 1.41117e-08 1.41117e-08 1.41117e-08 1.41117e-08 1.41117e-08 1.41117e-08 1.41117e-08 1.41117e-08 1.41117e-08 1.41117e-08 1.41117e-08 1.41117e-08 1.41117e-08 1.41117e-08 1.41117e-08 1.41117e-08 1.41117e-08 1.41117e-08 1.41117e-08 1.41117e-08 1.41117e-08 1.41117e-08 1.41117e-08 1.41117e-08 1.41117e-08 1.41117e-08 1.41117e-08 1.41117e-08 1.41117e-08 1.41117e-08 1.41117e-08 1.41117e-08 1.41117e-08 1.41117e-08 1.41117e-08 1.41117e-08 1.41117e-08 1.41117e-08 1.41117e-08 1.41117e-08 1.41117e-08 1.41117e-08 1.41117e-08 1.41117e-08 1.41117e-08 1.41117e-08 1.41117e-08 1.41117e-08 1.41117e-08 1.41117e-08 1.41117e-08 1.41117e-08 1.41117e-08 1.41117e-08 1.41117e-08 1.41117e-08 1.41117e-08 1.41117e-08 1.41117e-08 1.41117e-08 1.41117e-08 1.41117e-08 1.41117e-08 1.41117e-08 1.41117e-08 1.41117e-08 1.41117e-08 1.41117e-08 1.41117e-08 1.41117e-08 1.41117e-08 1.41117e-08 1.41117e-08 1.41117e-08 1.41117e-08 1.41117e-08 1.41117e-08 1.41117e-08 1.41117e-08 1.41117e-08 1.41117e-08 1.41117e-08 1.41117e-08 1.41117e-08 1.41117e-08 1.41117e-08 1.41117e-08 1.41117e-08 1.41117e-08 1.41117e-08 1.41117e-08 1.41117e-08 1.41117e-08 1.41117e-08 1.41117e-08 1.41117e-08 1.41117e-08 1.41117e-08 1.41117e-08 1.41117e-08 1.41117e-08 1.41117e-08 1.41117e-08 1.41117e-08 1.41117e-08 1.41117e-08 1.41117e-08 1.41117e-08 1.41117e-08 1.41117e-08 1.41117e-08 1.41117e-08 1.41117e-08 1.41117e-08 1.41117e-08 1.41117e-08 1.41117e-08 1.41117e-08 1.41117e-08 1.41117e-08 1.41117e-08 1.41117e-08 1.41117e-08 1.41117e-08 1.41117e-08 1.41117e-08 1.41117e-08 1.41117e-08 1.41117e-08 1.41117e-08 1.41117e-08 1.41117e-08 1.41117e-08 1.41117e-08 1.41117e-08 1.41117e-08 1.41117e-08 1.41117e-08 1.41117e-08 1.41117e-08 1.41117e-08 1.41117e-08 1.41117e-08 1.41117e-08 1.41117e-08 1.41117e-08 1.41117e-08 1.41117e-08 1.41117e-08 1.41117e-08 1.41117e-08 1.41117e-08 1.41117e-08 1.41117e-08 1.41117e-08 1.41117e-08 1.41117e-08 1.41117e-08 1.41117e-08 1.41117e-08 1.41117e-08 1.41117e-08 1.41117e-08 1.41117e-08 1.41117e-08 1.41117e-08 1.41117e-08 1.41117e-08 
</DataArray>
<DataArray type="Float32" Name="Radius" NumberOfComponents="1" >
0.00015 0.00015 0.00015 0.00015 0.00015 0.00015 0.00015 0.00015 0.00015 0.00015 0.00015 0.00015 0.00015 0.00015 0.00015 0.00015 0.00015 0.00015 0.00015 0.00015 0.00015 0.00015 0.00015 0.00015 0.00015 0.00015 0.00015 0.00015 0.00015 0.00015 0.00015 0.00015 0.00015 0.00015 0.00015 0.00015 0.00015 0.00015 0.00015 0.00015 0.00015 0.00015 0.00015 0.00015 0.00015 0.00015 0.00015 0.00015 0.00015 0.00015 0.00015 0.00015 0.00015 0.00015 0.00015 0.00015 0.00015 0.00015 0.00015 0.00015 0.00015 0.00015 0.00015 0.00015 0.00015 0.00015 0.00015 0.00015 0.00015 0.00015 0.00015 0.00015 0.00015 0.00015 0.00015 0.00015 0.00015 0.00015 0.00015 0.00015 0.00015 0.00015 0.00015 0.00015 0.00015 0.00015 0.00015 0.00015 0.00015 0.00015 0.00015 0.00015 0.00015 0.00015 0.00015 0.00015 0.00015 0.00015 0.00015 0.00015 0.00015 0.00015 0.00015 0.00015 0.00015 0.00015 0.00015 0.00015 0.00015 0.00015 0.00015 0.00015 0.00015 0.00015 0.00015 0.00015 0.00015 0.00015 0.00015 0.00015 0.00015 0.00015 0.00015 0.00015 0.00015 0.00015 0.00015 0.00015 0.00015 0.00015 0.00015 0.00015 0.00015 0.00015 0.00015 0.00015 0.00015 0.00015 0.00015 0.00015 0.00015 0.00015 0.00015 0.00015 0.00015 0.00015 0.00015 0.00015 0.00015 0.00015 0.00015 0.00015 0.00015 0.00015 0.00015 0.00015 0.00015 0.00015 0.00015 0.00015 0.00015 0.00015 0.00015 0.00015 0.00015 0.00015 0.00015 0.00015 0.00015 0.00015 0.00015 0.00015 0.00015 0.00015 0.00015 0.00015 0.00015 0.00015 0.00015 0.00015 0.00015 0.00015 0.00015 0.00015 0.00015 0.00015 0.00015 0.00015 0.00015 0.00015 0.00015 0.00015 0.00015 0.00015 0.00015 0.00015 0.00015 0.00015 0.00015 0.00015 0.00015 0.00015 0.00015 0.00015 0.00015 0.00015 0.00015 0.00015 0.00015 0.00015 0.00015 0.00015 0.00015 0.00015 0.00015 0.00015 0.00015 0.00015 0.00015 0.00015 0.00015 0.00015 0.00015 0.00015 0.00015 0.00015 0.00015 0.00015 0.00015 0.00015 0.00015 0.00015 0.00015 0.00015 0.00015 0.00015 0.00015 0.00015 0.00015 0.00015 0.00015 0.00015 0.00015 0.00015 0.00015 0.00015 0.00015 0.00015 0.00015 0.00015 0.00015 0.00015 0.00015 0.00015 0.00015 0.00015 0.00015 0.00015 0.00015 0.00015 0.00015 0.00015 0.00015 0.00015 0.00015 0.00015 0.00015 0.00015 0.00015 0.00015 0.00015 0.00015 0.00015 0.00015 0.00015 0.00015 0.00015 0.00015 0.00015 0.00015 0.00015 0.00015 0.00015 0.00015 0.00015 0.00015 0.00015 0.00015 0.00015 0.00015 0.00015 0.00015 0.00015 0.00015 0.00015 0.00015 0.00015 0.00015 0.00015 0.00015 0.00015 0.00015 0.00015 0.00015 0.00015 0.00015 0.00015 0.00015 0.00015 0.00015 0.00015 0.00015 0.00015 0.00015 0.00015 0.00015 0.00015 0.00015 
</DataArray>
<DataArray type="Float32" Name="Velocity" NumberOfComponents="3" >
0 0 0 0 0 0 0 0 0 0 0 0 0 0 0 0 0 0 0 0 0 0 0 0 0 0 0 0 0 0 0 0 0 0 0 0 0 0 0 0 0 0 0 0 0 0 0 0 0 0 0 0 0 0 0 0 0 -0.00902065 -7.03922e-05 -0.018729 0 0 0 0 0 0 0 0 0 0 0 0 0 0 0 0 0 0 0 0 0 -0.01047 0.000189744 -0.0212273 -0.00900172 -0.000195529 -0.0179399 0 0 0 0 0 0 0 0 0 -0.0110622 0.000134733 -0.0227278 -0.0115989 4.1573e-05 -0.0247695 -0.00794632 -0.000180213 -0.0156153 -0.0105688 0.000123992 -0.0210729 0 0 0 -0.0124118 -3.14767e-05 -0.0257207 -0.00882543 2.87939e-05 -0.0171965 -0.0131349 1.17581e-05 -0.027479 0 0 0 -0.0131623 8.97606e-05 -0.0270726 0 0 0 -0.0142422 9.78185e-05 -0.0290694 0 0 0 -0.0113128 -0.000111306 -0.0221892 0 0 0 0 0 0 -0.0139126 0.000193641 -0.0274785 -0.013785 -0.000351375 -0.0272903 -0.009399 0.00019389 -0.0173372 -0.0148408 -0.000378605 -0.0294544 -0.0156914 0.000105412 -0.0314763 -0.0096157 0.000209108 -0.0177251 -0.0145201 -0.000423263 -0.0285938 -0.015866 -9.449e-05 -0.0319726 -0.0138962 -0.000410569 -0.0272265 -0.0132301 -0.000413158 -0.0256735 -0.014654 0.000243141 -0.0283565 0 0 0 -0.0094144 0.000251988 -0.0170833 -0.00919148 0.000258859 -0.0166083 0 0 0 -0.0162514 0.000237675 -0.0316738 -0.0141044 0.000213746 -0.0269329 -0.014026 -0.000489763 -0.0270702 0 0 0 -0.0172072 8.01821e-05 -0.033601 -0.0173923 -0.000184987 -0.033902 0 0 0 0 0 0 0 0 0 -0.0131761 -0.000435138 -0.0252474 -0.00669151 -0.000165608 -0.012051 -0.0156586 0.000249517 -0.0298018 -0.0181815 1.09249e-05 -0.0349648 -0.0179128 -0.000353855 -0.0341885 -0.0173962 0.000210497 -0.0331978 -0.0184945 9.16942e-06 -0.0354021 -0.011312 -0.000257186 -0.0215132 -0.017503 0.000208107 -0.0333369 -0.015245 -0.000522644 -0.0290777 -0.0186796 -0.000232332 -0.0354886 -0.0158572 0.000216797 -0.0300485 0 0 0 -0.014413 0.000108832 -0.0270976 0 0 0 -0.0184871 0.00011077 -0.0349615 -0.0129841 9.4672e-05 -0.0244831 -0.0181279 0.000169122 -0.0342181 -0.0196223 -0.000162297 -0.0369443 -0.0195387 -0.000104124 -0.0368505 -0.0179646 -0.000352106 -0.0338952 0 0 0 -0.0135438 9.44738e-05 -0.025599 -0.018763 -0.000301234 -0.0352253 -0.00792024 0.000282135 -0.015419 0 0 0 -0.0179942 0.000165518 -0.0336442 -0.0158323 0.000175529 -0.0296659 -0.0121751 7.203e-05 -0.0231985 0 0 0 -0.0172479 -0.000360087 -0.0324211 -0.0184041 -0.000300408 -0.0343985 -0.0174363 -0.000338888 -0.0326791 -0.00675613 -0.000243871 -0.0131326 0 0 0 -0.0203821 -0.000194912 -0.0380094 -0.0200969 -0.000219398 -0.0374554 -0.020062 -2.74808e-05 -0.0374823 -0.0201548 -0.000216201 -0.0375396 -0.0203684 -0.000207684 -0.0378763 -0.0200689 -0.000226954 -0.0372862 -0.00808992 -0.000302512 -0.0158607 -0.0177774 -0.000300457 -0.0329905 -0.0166297 -0.000351153 -0.0310582 -0.0195927 -0.000244814 -0.0361971 -0.0202873 1.12931e-05 -0.0375186 -0.00945557 -0.00038679 -0.0185087 -0.0190163 0.000106972 -0.034975 -0.0183508 0.000139855 -0.0337313 -0.0210192 -0.000137054 -0.0389262 -0.0141492 -0.000410709 -0.0268464 -0.0202577 -0.000236338 -0.0373324 -0.0182265 0.000145762 -0.0334603 -0.0180365 0.000157969 -0.033123 -0.00872022 -0.000412092 -0.017225 0 0 0 -0.0196272 8.70534e-05 -0.035952 -0.0140792 -0.00041909 -0.0266167 -0.0170704 -0.000337707 -0.0314654 -0.0082426 -0.000422052 -0.0163701 -0.021211 -2.81171e-05 -0.0390126 -0.0195682 -0.000253466 -0.0357767 0 0 0 -0.019924 -0.000251905 -0.0364096 -0.0157431 0.000219975 -0.0289445 -0.0199638 8.55189e-05 -0.0364201 0 0 0 -0.0189724 -0.00026643 -0.0344935 -0.0148663 -0.000424527 -0.0275813 -0.0206002 -0.000265074 -0.0374159 -0.0190395 8.50339e-05 -0.0344554 -0.009112 -0.000481358 -0.0178954 -0.0107693 -0.000487536 -0.0207402 -0.0217955 -0.000104249 -0.0396923 -0.0218071 -6.18657e-05 -0.0396207 -0.0218465 -0.000137375 -0.0397953 -0.00909468 0.000269346 -0.0177322 -0.0213505 -0.000267955 -0.0386781 -0.0219213 -8.07025e-05 -0.0397416 -0.0156593 -0.000383657 -0.0283834 -0.0215376 1.20399e-05 -0.0388025 -0.0139752 -0.000443707 -0.0256512 -0.00725232 0.000367649 -0.014421 -0.00742971 -0.000482346 -0.0147597 0 0 0 -0.0157328 -0.000370941 -0.028387 -0.0220653 -0.000186115 -0.039837 -0.019409 -0.000316673 -0.0347111 -0.0213558 1.76737e-05 -0.0383457 -0.0184002 6.85282e-05 -0.0329191 -0.0220464 -0.000204253 -0.0397351 -0.0217829 -1.3782e-05 -0.0390815 -0.0144858 0.00019809 -0.0263492 -0.0215409 3.20547e-06 -0.0386232 -0.0222106 -9.00124e-05 -0.039938 -0.0220585 -4.0144e-05 -0.0395594 -0.0212022 -0.000303784 -0.0379376 -0.0222388 -7.37684e-05 -0.0399071 -0.0216206 -9.47686e-06 -0.0386026 -0.012313 -0.00047337 -0.0226835 -0.022304 -6.66007e-05 -0.0397866 0 0 0 -0.0213523 -4.88163e-07 -0.0378385 -0.0215832 -1.47023e-05 -0.0382975 -0.0125459 -0.000447141 -0.0229899 -0.0225633 -0.000155321 -0.0403007 -0.021818 -2.64345e-05 -0.0387605 -0.0197381 7.1294e-05 -0.0347897 -0.0207658 3.56418e-05 -0.0366873 -0.0213546 -0.000304351 -0.0378089 -0.0155572 -0.000310615 -0.0277452 -0.0202955 -0.000333124 -0.0357801 0 0 0 -0.0204678 -0.000333965 -0.0360723 -0.00851294 -0.000550536 -0.0165404 -0.0224896 -7.61812e-05 -0.0399149 -0.0193365 -0.000327913 -0.0339518 -0.0225906 -0.000103679 -0.0401237 -0.0166843 7.28431e-05 -0.029386 -0.0226735 -0.000154636 -0.040271 -0.0219474 -2.39717e-05 -0.0387679 -0.0099922 0.00037788 -0.0190054 -0.0132617 0.000183109 -0.0239892 -0.0138004 -0.000337587 -0.02485 -0.0218874 -0.000275781 -0.0385886 -0.0223142 -0.000234996 -0.0394413 -0.0081367 -0.000558527 -0.015889 -0.0204641 6.43698e-05 -0.035781 -0.0191099 8.83693e-05 -0.0333482 -0.0199331 8.30769e-05 -0.0347784 -0.0227301 -0.000145602 -0.0402738 -0.0224212 -0.000224337 -0.0395765 -0.0222686 -0.000252058 -0.03926 -0.0153516 8.07712e-05 -0.0271405 -0.0122467 0.000229278 -0.0223354 -0.0142859 0.000101192 -0.0254724 -0.0223321 -0.000241963 -0.0393589 -0.0147482 8.71076e-05 -0.0261626 -0.00598878 0.000439006 -0.012025 0 0 0 0 0 0 -0.0227711 -0.000142536 -0.0402148 -0.0221031 -8.57686e-06 -0.0387817 -0.0204561 8.31228e-05 -0.0354879 -0.0164516 9.97847e-05 -0.0286716 -0.0161531 -0.00031152 -0.0282835 -0.022309 -0.000278052 -0.0389838 -0.0208945 -0.000350078 -0.0361208 -0.0215178 -0.000332805 -0.0373538 -0.0169919 -0.000336231 -0.0294843 -0.018607 0.000110011 -0.0320593 -0.0212844 -0.000346453 -0.0368303 -0.0187075 -0.000364626 -0.0322153 -0.0136282 9.47263e-05 -0.024183 -0.0212252 -0.000357888 -0.0366314 -0.0139499 9.37762e-05 -0.024642 -0.0219644 -0.000325152 -0.0381178 -0.0207192 -0.00036856 -0.0356278 -0.0222973 -0.000303807 -0.0387548 -0.00534835 0.000430041 -0.0107771 -0.00709157 0.000448572 -0.0140019 -0.0162858 0.000114889 -0.0280967 -0.00574173 0.000434417 -0.011527 -0.00597576 0.000438973 -0.011973 -0.0207958 -0.000376183 -0.0356775 -0.0137524 -0.000329575 -0.0241331 -0.00567658 0.000434207 -0.0114039 -0.0121642 -0.000333321 -0.0216902 -0.0227903 -0.000195429 -0.0397826 -0.0105589 0.00023463 -0.0191977 -0.0228047 -0.000187826 -0.0397779 -0.0218308 7.65432e-05 -0.0375437 -0.0105765 -0.000372856 -0.0191526 -0.0140246 0.000114586 -0.0244653 -0.0116272 0.000146733 -0.0207894 -0.0221339 -0.00034357 -0.0382009 -0.0225268 -0.000271454 -0.0390594 -0.021592 8.87286e-05 -0.0369928 -0.0218187 7.9256e-05 -0.03742 -0.0221853 4.97271e-05 -0.0382658 -0.0227589 -0.000158264 -0.0395832 -0.0153729 -0.000394127 -0.0263745 0 0 0 0 0 0 -0.0188875 -0.000416793 -0.0320852 -0.0139064 -0.000375173 -0.0240766 -0.0206647 0.000115721 -0.0351085 -0.0217319 -0.000377669 -0.037279 -0.0224982 -0.000278848 -0.0388693 -0.0214392 9.12218e-05 -0.0365752 -0.0168074 -0.000414742 -0.0284754 -0.0199071 0.00012783 -0.0337151 -0.0221602 4.99845e-05 -0.0380726 -0.00837839 0.000404695 -0.0155978 -0.0225863 -1.84029e-05 -0.0390541 -0.0174376 -0.00041842 -0.0294865 -0.0107471 0.00017531 -0.0191805 -0.0198354 -0.000422822 -0.0335557 -0.021021 0.000100354 -0.0356467 0 0 0 -0.0147513 0.00015651 -0.0251363 -0.0188978 0.000153847 -0.0318313 -0.0156477 0.000157324 -0.0265183 -0.0210126 -0.000414663 -0.0356469 -0.0165315 0.000165319 -0.0279269 -0.0192698 -0.000431593 -0.0324933 -0.018884 -0.00043284 -0.031836 0 0 0 -0.0214865 7.72909e-05 -0.0364143 -0.00555035 -0.00055724 -0.011183 -0.0160335 0.000171342 -0.0269495 -0.0160591 -0.000424589 -0.0269439 -0.0212635 -0.000412609 -0.0360195 -0.0200429 -0.000435702 -0.0337266 -0.0214949 -0.000405986 -0.0364985 -0.0178175 -0.000425295 -0.0298304 -0.00905043 -0.000373314 -0.0162486 -0.00569507 -0.000534245 -0.0113767 -0.0168775 -0.000419903 -0.0281738 -0.00985281 -0.000386049 -0.0174433 -0.0188957 -0.000444777 -0.0315844 -0.0178534 0.000175883 -0.0297016 -0.00718242 -0.000427134 -0.0134371 0 0 0 -0.0148532 -0.000428141 -0.0248148 -0.0110349 0.00019544 -0.0190116 -0.00711671 -0.000422775 -0.0132532 -0.0133878 0.000192904 -0.0225195 -0.0091876 0.000227767 -0.0162432 -0.0153472 -0.000413191 -0.0254817 -0.00697074 -0.000363359 -0.0126006 -0.00663739 0.000305087 -0.0120004 -0.010495 0.000228951 -0.0177266 0 0 0 0 0 0 -0.00604315 0.000259238 -0.0108648 0 0 0 0 0 0 -0.00564633 0.000213976 -0.0100143 -0.00482451 0.000245737 -0.00874426 -0.00429621 0.000297349 -0.00790885 0 0 0 -0.00257746 -0.000561463 -0.0055468 -0.00222371 -0.000555601 -0.00482568 0 0 0 0 0 0 
</DataArray>
<DataArray type="Float32" Name="Force" NumberOfComponents="3" >
-1.20628e-10 -4.80668e-12 -1.37885e-11 -1.51982e-10 -2.21537e-12 -1.52927e-11 -1.67335e-10 -2.76843e-12 -2.41548e-11 1.39521e-10 -1.81244e-12 3.0585e-10 -2.12269e-10 -1.72256e-12 -5.09345e-11 -1.74983e-10 -2.27316e-12 -2.11902e-11 -2.17338e-10 -9.23904e-13 -5.85795e-11 1.84999e-10 -4.61593e-12 4.35223e-10 2.48134e-10 2.54736e-12 6.34743e-10 1.87461e-10 -5.39533e-12 4.41788e-10 -1.24001e-10 -5.66861e-12 -1.15188e-11 -6.752e-14 2.23531e-12 5.88346e-11 -2.63652e-10 3.30328e-13 -1.09488e-10 -3.23417e-10 -3.37198e-13 -1.9747e-10 -1.86547e-10 -1.09406e-11 -1.40981e-11 2.59264e-10 1.94653e-12 7.05478e-10 2.4523e-10 4.81471e-12 6.24046e-10 -2.4337e-10 -2.32383e-11 -6.07159e-11 1.73086e-10 -6.52545e-12 4.14517e-10 -2.93493e-10 -1.67462e-11 -1.32852e-10 2.37421e-10 -4.26568e-12 6.43047e-10 2.99614e-10 1.19776e-12 7.83989e-10 -1.56657e-10 -1.5257e-11 7.93488e-12 -1.78801e-10 1.39818e-11 -1.02614e-12 -5.79237e-11 2.02153e-12 9.49701e-11 -1.88411e-10 -2.94627e-11 9.48224e-12 -1.42434e-10 -2.05479e-11 2.63989e-11 -1.88235e-10 1.61213e-11 2.74001e-11 -2.10804e-10 -2.4435e-11 1.36669e-11 -1.73855e-10 -4.45721e-11 4.70907e-11 2.64916e-10 2.54765e-12 7.78043e-10 -1.18382e-11 -2.09488e-12 -4.97112e-11 -1.85303e-10 1.74508e-11 4.3187e-11 -1.93602e-10 1.97758e-11 -5.0294e-12 -1.85899e-10 -4.23191e-11 4.6343e-11 -1.57463e-10 1.99208e-11 9.92107e-11 -3.20468e-11 1.20589e-11 1.57504e-10 -1.26991e-10 3.55078e-11 9.55265e-11 -1.43529e-10 -1.46189e-11 1.12691e-10 -1.04939e-10 3.99096e-11 1.0741e-10 -2.45355e-11 -2.72292e-12 4.9754e-11 -9.2431e-11 2.15521e-11 1.28846e-10 2.0218e-10 -1.02228e-11 4.66158e-10 -4.71034e-11 2.47848e-11 1.49451e-10 2.2708e-10 -8.6432e-12 6.06197e-10 -1.38183e-10 4.79985e-11 8.71048e-11 5.38199e-11 1.78141e-12 1.21727e-10 -1.08784e-10 -5.24881e-11 1.44812e-10 -5.98673e-11 -1.02047e-11 1.24498e-10 -9.54456e-11 8.17445e-11 1.2632e-10 -1.92986e-10 -3.56634e-12 3.22058e-11 -6.86662e-11 8.29002e-11 1.58302e-10 1.65531e-11 1.93112e-11 1.50817e-10 -1.97305e-10 -6.4301e-12 2.00958e-11 -8.94676e-11 8.73276e-11 1.5118e-10 -1.97717e-12 4.69453e-11 1.52687e-10 -1.03784e-10 8.47523e-11 1.28068e-10 -1.22185e-10 8.28561e-11 1.00643e-10 -3.37559e-11 -2.38135e-11 1.0537e-10 -1.10063e-10 -3.10385e-11 1.04323e-10 -2.14469e-10 -9.65146e-12 -1.58368e-11 -2.16952e-10 -8.98227e-12 -1.79506e-11 -2.1554e-10 -1.08794e-11 -2.25136e-11 2.84661e-11 -6.11591e-12 1.35225e-10 -5.40504e-11 -2.45791e-11 8.52689e-11 -1.24741e-10 8.9199e-11 1.3653e-10 -1.66162e-10 -7.47152e-12 -4.12811e-12 3.60856e-11 1.35892e-11 1.59978e-10 -5.99578e-12 3.17608e-11 1.83083e-10 1.91454e-10 1.1223e-11 5.14425e-10 -1.76856e-10 -6.64785e-12 -1.19633e-11 -2.14796e-10 -6.85498e-12 -3.45097e-11 -1.52886e-10 8.92837e-11 1.18261e-10 -2.07611e-10 5.56835e-11 -1.61203e-11 -2.48005e-11 -1.75905e-11 9.82697e-11 5.68709e-11 2.2478e-11 1.48547e-10 -2.1647e-11 4.9867e-11 1.99008e-10 3.00513e-11 1.47536e-11 1.2466e-10 6.01815e-11 2.62177e-11 1.44077e-10 -1.83846e-10 8.79764e-11 5.64412e-11 2.62145e-11 1.75473e-11 1.26875e-10 -8.82292e-11 6.81421e-11 1.77381e-10 2.38421e-11 3.55745e-11 1.65241e-10 -9.21643e-12 -6.715e-12 1.00594e-10 9.49179e-11 8.74207e-12 2.20385e-10 -3.51179e-11 -2.5861e-11 7.70212e-11 -2.23079e-10 7.11785e-11 -5.49841e-11 4.96477e-11 2.81414e-11 1.24759e-10 -4.46077e-11 -3.99405e-11 3.26827e-11 3.54541e-11 2.65247e-11 1.23702e-10 4.11296e-11 3.16245e-11 1.36599e-10 4.97694e-11 3.2698e-11 1.31883e-10 2.15456e-11 5.25088e-11 1.6618e-10 -2.06602e-10 6.1395e-11 -4.31462e-11 -2.51644e-11 -2.35561e-11 5.03248e-11 4.5548e-11 4.6019e-11 1.53261e-10 -1.37874e-10 -1.00212e-11 -5.98124e-11 -1.61821e-10 3.63117e-11 -3.17938e-12 3.61952e-11 2.64774e-11 1.1667e-10 9.47971e-12 1.00331e-11 1.03005e-10 -3.43051e-11 -3.60355e-11 7.80098e-12 1.34106e-10 1.12411e-11 3.16161e-10 3.69319e-11 5.78479e-11 1.5259e-10 5.03731e-11 5.32731e-11 1.4882e-10 4.069e-11 5.9088e-11 1.51032e-10 -2.24808e-10 8.23196e-11 -7.82257e-11 1.2813e-10 1.07422e-11 2.98849e-10 3.56132e-11 3.35216e-11 1.11846e-10 4.56847e-11 3.84278e-11 1.21202e-10 6.27088e-11 3.01852e-11 9.97573e-11 4.35188e-11 4.05761e-11 1.2388e-10 4.0765e-11 4.27664e-11 1.25147e-10 4.84632e-11 4.87215e-11 1.35912e-10 -1.94254e-10 8.76525e-11 -2.38406e-12 4.87717e-11 6.22354e-11 1.45011e-10 4.57647e-11 5.53153e-11 1.41965e-10 5.71897e-11 5.67965e-11 1.41797e-10 6.14066e-11 3.60735e-11 1.11471e-10 -1.50396e-10 7.22285e-11 7.12665e-11 6.04895e-11 3.15561e-11 1.12882e-10 6.80014e-11 2.94196e-11 1.07282e-10 4.04713e-11 4.64874e-11 1.21565e-10 2.14534e-11 4.79979e-11 1.24261e-10 5.56003e-11 5.68805e-11 1.4056e-10 7.02285e-11 3.01058e-11 1.06394e-10 6.65242e-11 3.15005e-11 1.07046e-10 -1.55078e-10 7.39995e-11 5.51661e-11 -1.75015e-10 -1.8276e-12 -4.66411e-11 5.72964e-11 3.72545e-11 1.18921e-10 2.3476e-11 4.90412e-11 1.2062e-10 5.82157e-11 5.72709e-11 1.41813e-10 -1.62493e-10 7.63733e-11 4.54606e-11 4.63408e-11 5.31087e-11 1.25103e-10 5.10466e-11 6.59365e-11 1.47263e-10 -1.37534e-10 3.56644e-11 1.92557e-12 4.7561e-11 6.57006e-11 1.4607e-10 5.02527e-11 3.20453e-11 8.89923e-11 4.7664e-11 4.64829e-11 1.27991e-10 -1.07755e-10 2.11228e-14 -3.45877e-11 4.77137e-11 6.95928e-11 1.45457e-10 4.61599e-11 4.7258e-11 1.22095e-10 3.50597e-11 6.70949e-11 1.41396e-10 7.38293e-11 3.83907e-11 1.05848e-10 -1.02959e-10 6.19875e-11 6.64555e-11 -3.84629e-11 5.73425e-11 8.13343e-11 1.7062e-11 6.09772e-11 1.44092e-10 1.16184e-11 6.5159e-11 1.48546e-10 1.64561e-11 6.03016e-11 1.44068e-10 -4.72327e-11 1.72449e-11 -5.50843e-12 2.95368e-11 5.93197e-11 1.32768e-10 1.43255e-11 6.00483e-11 1.44095e-10 4.78472e-11 6.02087e-11 1.23913e-10 2.15596e-11 5.84626e-11 1.36666e-10 3.21199e-11 5.7016e-11 1.1114e-10 -7.42863e-11 2.06252e-11 -5.15233e-11 -1.39028e-10 6.36838e-11 4.52873e-11 -7.82488e-11 8.55834e-12 -3.74157e-11 4.69058e-11 6.2351e-11 1.21565e-10 2.36222e-11 5.79499e-11 1.28642e-10 4.23503e-11 6.3087e-11 1.23114e-10 3.12701e-11 5.20077e-11 1.26766e-10 7.30667e-11 3.23533e-11 8.96184e-11 2.81377e-11 5.47136e-11 1.2362e-10 2.89438e-11 5.31728e-11 1.25758e-10 6.80877e-11 2.66477e-11 7.79265e-11 3.23554e-11 5.16408e-11 1.24327e-10 2.68899e-11 4.88448e-11 1.2283e-10 2.82424e-11 5.0322e-11 1.22632e-10 4.61631e-11 5.5162e-11 1.16585e-10 2.79338e-11 4.70945e-11 1.19838e-10 3.88479e-11 4.59567e-11 1.15016e-10 1.22385e-11 6.2128e-11 9.20866e-11 3.05787e-11 4.08454e-11 1.08089e-10 -6.70132e-11 1.15685e-11 -2.27846e-11 5.07051e-11 3.45565e-11 1.01856e-10 4.80513e-11 3.29273e-11 1.02991e-10 2.04419e-11 6.50033e-11 9.47758e-11 2.40916e-11 4.61454e-11 9.98956e-11 4.28002e-11 3.41611e-11 1.03993e-10 7.54567e-11 3.16599e-11 9.01161e-11 5.96803e-11 3.58231e-11 9.99779e-11 5.10549e-11 5.70776e-11 1.08947e-10 5.07672e-11 6.83312e-11 1.09409e-10 6.44251e-11 5.73879e-11 1.11203e-10 -1.30958e-10 6.36248e-11 1.99404e-11 6.30828e-11 5.74197e-11 1.10253e-10 -3.72811e-11 5.13034e-11 4.59873e-11 2.56243e-11 3.08931e-11 9.59955e-11 7.43891e-11 5.57862e-11 1.12494e-10 1.97525e-11 3.78324e-11 9.34994e-11 8.09864e-11 3.20692e-11 9.28663e-11 1.2772e-11 5.09222e-11 8.76592e-11 4.10079e-11 2.59965e-11 9.71351e-11 2.53385e-11 2.753e-11 3.38434e-11 6.27024e-11 2.75463e-11 7.93987e-11 4.04156e-11 7.29639e-11 9.97388e-11 3.60472e-11 6.18042e-11 1.01948e-10 2.34042e-11 6.08489e-11 9.80089e-11 -3.99203e-11 5.03605e-11 4.26454e-11 6.65573e-11 2.43443e-11 9.33419e-11 7.73302e-11 3.02808e-11 8.94259e-11 7.03336e-11 2.69623e-11 9.00692e-11 6.94066e-12 4.96262e-11 8.42934e-11 1.83546e-11 6.02762e-11 9.33947e-11 2.46551e-11 6.22973e-11 9.91179e-11 7.88025e-11 3.16958e-11 8.80936e-11 6.19491e-11 2.55737e-11 6.94641e-11 7.34111e-11 3.12315e-11 8.50305e-11 2.27606e-11 6.37693e-11 9.65607e-11 7.6655e-11 3.15952e-11 8.61023e-11 -6.89272e-11 4.13476e-11 -1.14101e-11 -5.45121e-11 1.1867e-11 -1.24468e-11 -9.83476e-11 4.01047e-11 -1.82342e-11 8.71948e-12 5.54371e-11 8.26742e-11 3.77609e-11 2.7805e-11 9.12282e-11 6.82325e-11 2.79882e-11 9.18224e-11 8.38258e-11 3.25331e-11 8.34508e-11 7.67374e-11 5.55654e-11 1.05431e-10 1.83441e-11 6.83629e-11 8.49469e-11 4.55399e-11 6.82361e-11 9.22654e-11 3.53974e-11 6.81485e-11 9.14383e-11 7.64182e-11 5.67689e-11 1.04746e-10 8.25604e-11 3.41902e-11 8.65014e-11 3.90783e-11 6.78879e-11 9.14459e-11 6.64138e-11 6.72307e-11 9.91557e-11 7.39439e-11 3.35568e-11 8.02983e-11 3.57614e-11 6.61627e-11 8.72609e-11 7.5686e-11 3.35572e-11 8.03975e-11 1.69067e-11 6.73482e-11 7.8395e-11 3.99844e-11 6.85523e-11 8.53295e-11 8.61206e-12 6.93841e-11 7.37337e-11 -6.57056e-11 4.20674e-11 -5.7868e-12 -1.05142e-11 3.53248e-11 1.26777e-11 8.53572e-11 3.28758e-11 7.84343e-11 -6.13743e-11 3.87383e-11 -2.98124e-12 -5.70233e-11 3.67175e-11 -2.76543e-12 3.34814e-11 6.82859e-11 7.97667e-11 6.01866e-11 5.7949e-11 9.82031e-11 -6.00883e-11 3.8314e-11 -3.43654e-12 4.3242e-11 6.5959e-11 9.35594e-11 -8.71228e-12 5.97432e-11 5.91536e-11 6.41534e-11 4.95772e-11 8.04778e-11 -8.30878e-12 6.36762e-11 5.91075e-11 1.64181e-11 4.70352e-11 6.66523e-11 1.6718e-11 7.56735e-11 8.19e-11 7.46228e-11 3.73084e-11 7.69226e-11 6.45064e-11 4.36471e-11 8.12888e-11 -5.98133e-12 6.60426e-11 6.05805e-11 -1.3582e-11 6.33319e-11 5.7531e-11 1.36354e-11 4.82329e-11 6.5653e-11 7.42898e-12 4.79669e-11 6.17184e-11 2.03876e-12 5.04407e-11 6.22591e-11 -1.46835e-11 5.95881e-11 5.61995e-11 6.30345e-11 5.12392e-11 9.41477e-11 -5.11655e-11 4.12712e-11 2.69599e-11 -3.60278e-11 3.05642e-11 1.66578e-11 4.88585e-11 7.16577e-11 8.22667e-11 5.30253e-11 5.25649e-11 9.59292e-11 2.39878e-11 5.10635e-11 7.38626e-11 -6.03525e-12 6.48326e-11 5.87567e-11 -2.7529e-11 5.80174e-11 4.96297e-11 2.39757e-12 4.51133e-11 6.1298e-11 6.05124e-11 6.58278e-11 9.48092e-11 3.1156e-11 5.0605e-11 7.6412e-11 -1.04793e-11 4.99067e-11 5.62979e-11 6.23822e-11 7.75807e-11 8.42481e-11 -2.5112e-11 4.73267e-11 4.9653e-11 5.50831e-11 6.90393e-11 9.00078e-11 5.89801e-11 4.65336e-11 8.03536e-11 2.20178e-11 6.91661e-11 6.71587e-11 2.56576e-12 4.19076e-11 6.66017e-11 -4.25977e-11 1.14558e-11 -9.18304e-12 8.23936e-11 4.73694e-11 8.54645e-11 3.50188e-11 5.61003e-11 8.16638e-11 7.92091e-11 5.31828e-11 8.81533e-11 -8.71769e-12 5.95394e-11 5.36483e-11 6.92523e-11 5.97921e-11 8.95947e-11 2.78536e-11 7.04889e-11 6.85708e-11 3.29009e-11 7.11637e-11 6.88016e-11 7.08847e-12 -6.60444e-12 -2.91749e-11 -1.87922e-11 3.03434e-11 5.81338e-11 -4.10753e-11 3.70519e-11 3.57907e-11 6.17588e-11 6.09198e-11 9.07208e-11 5.31095e-11 7.06804e-11 9.26485e-11 -2.04039e-11 6.11962e-11 5.38992e-11 4.6634e-12 6.57564e-11 5.8786e-11 -2.94003e-11 5.61251e-11 4.97281e-11 3.47297e-11 7.43319e-11 7.39677e-11 2.18304e-11 6.53047e-11 8.29505e-11 -2.96633e-11 4.54262e-11 4.36799e-11 3.9072e-11 7.52796e-11 8.26911e-11 2.18545e-11 6.73469e-11 8.69675e-11 2.63893e-11 7.57141e-11 6.29062e-11 2.67027e-11 4.56241e-11 9.08027e-11 -2.85245e-12 6.15506e-11 6.85426e-11 2.54133e-11 6.31976e-11 3.74927e-11 4.66959e-11 7.08292e-11 8.97938e-11 5.00022e-11 3.71192e-11 7.67792e-11 2.41487e-12 5.96049e-11 7.06432e-11 6.51673e-11 6.07035e-11 8.75292e-11 4.0641e-11 4.28653e-11 7.24305e-11 3.91071e-11 7.57541e-11 8.62972e-11 1.78046e-11 6.70833e-11 7.57355e-11 3.59245e-11 5.89141e-11 5.94261e-11 4.95935e-11 5.98385e-11 8.09794e-11 -8.65606e-11 3.52152e-11 -3.95482e-12 2.89318e-11 7.46495e-11 5.00499e-11 2.74678e-11 4.97898e-11 4.96919e-11 -7.92665e-11 2.97499e-11 -2.0621e-12 8.93749e-12 7.26431e-11 5.4045e-11 1.74921e-11 3.68654e-11 3.66073e-11 2.25578e-11 4.88168e-11 4.03787e-11 2.31479e-11 5.66127e-11 4.22998e-11 -4.4048e-11 1.95389e-11 3.78873e-12 -3.24562e-11 8.34495e-12 2.35356e-11 -2.74916e-11 2.04182e-12 2.68876e-11 -7.91663e-12 2.1275e-11 6.74783e-13 4.98473e-12 3.99912e-11 1.93139e-11 
</DataArray>
<DataArray type="Float32" Name="Active" NumberOfComponents="1" >
0 0 0 0 0 0 0 0 0 0 0 0 0 0 0 0 0 0 0 0 0 0 0 0 0 0 0 0 0 0 0 0 0 0 0 0 0 0 0 0 0 0 0 0 0 0 0 0 0 0 0 0 0 0 0 0 0 0 0 0 0 0 0 0 0 0 0 0 0 0 0 0 0 0 0 0 0 0 0 0 0 0 0 0 0 0 0 0 0 0 0 0 0 0 0 0 0 0 0 0 0 0 0 0 0 0 0 0 0 0 0 0 0 0 0 0 0 0 0 0 0 0 0 0 0 0 0 0 0 0 0 0 0 0 0 0 0 0 0 0 0 0 0 0 0 0 0 0 0 0 0 0 0 0 0 0 0 0 0 0 0 0 0 0 0 0 0 0 0 0 0 0 0 0 0 0 0 0 0 0 0 0 0 0 0 0 0 0 0 0 0 0 0 0 0 0 0 0 0 0 0 0 0 0 0 0 0 0 0 0 0 0 0 0 0 0 0 0 0 0 0 0 0 0 0 0 0 0 0 0 0 0 0 0 0 0 0 0 0 0 0 0 0 0 0 0 0 0 0 0 0 0 0 0 0 0 0 0 0 0 0 0 0 0 0 0 0 0 0 0 0 0 0 0 0 0 0 0 0 0 0 0 0 0 0 0 0 0 0 0 0 0 0 0 0 0 0 0 0 0 0 0 0 0 0 0 0 0 0 0 0 0 0 0 0 0 0 0 
</DataArray>
</PointData>
<CellData /> 
<Cells>
<DataArray type="Int32" Name="connectivity" format="ascii">
0 1 2 3 4 5 6 7 8 9 10 11 12 13 14 15 16 17 18 19 20 21 22 23 24 25 26 27 28 29 30 31 32 33 34 35 36 37 38 39 40 41 42 43 44 45 46 47 48 49 50 51 52 53 54 55 56 57 58 59 60 61 62 63 64 65 66 67 68 69 70 71 72 73 74 75 76 77 78 79 80 81 82 83 84 85 86 87 88 89 90 91 92 93 94 95 96 97 98 99 100 101 102 103 104 105 106 107 108 109 110 111 112 113 114 115 116 117 118 119 120 121 122 123 124 125 126 127 128 129 130 131 132 133 134 135 136 137 138 139 140 141 142 143 144 145 146 147 148 149 150 151 152 153 154 155 156 157 158 159 160 161 162 163 164 165 166 167 168 169 170 171 172 173 174 175 176 177 178 179 180 181 182 183 184 185 186 187 188 189 190 191 192 193 194 195 196 197 198 199 200 201 202 203 204 205 206 207 208 209 210 211 212 213 214 215 216 217 218 219 220 221 222 223 224 225 226 227 228 229 230 231 232 233 234 235 236 237 238 239 240 241 242 243 244 245 246 247 248 249 250 251 252 253 254 255 256 257 258 259 260 261 262 263 264 265 266 267 268 269 270 271 272 273 274 275 276 277 278 279 280 281 282 283 284 285 286 287 288 289 290 291 292 293 294 295 296 297 298 299 300 301 302 303 304 305 306 307 308 309 310 311 312 313 314 315 316 317 </DataArray>
<DataArray type="Int32" Name="offsets" format="ascii">