<?xml version="1.0"?>
<VTKFile type="UnstructuredGrid" version="0.1" byte_order="LittleEndian">
<UnstructuredGrid>
<Piece NumberOfPoints="13" NumberOfCells="13">
<PointData Vectors="Particles">
<DataArray type="Float32" Name="Mass" NumberOfComponents="1" >
1.41117e-08 1.41117e-08 1.41117e-08 1.41117e-08 1.41117e-08 1.41117e-08 1.41117e-08 1.41117e-08 1.41117e-08 1.41117e-08 1.41117e-08 1.41117e-08 1.41117e-08 
</DataArray>
<DataArray type="Float32" Name="Radius" NumberOfComponents="1" >
0.00015 0.00015 0.00015 0.00015 0.00015 0.00015 0.00015 0.00015 0.00015 0.00015 0.00015 0.00015 0.00015 
</DataArray>
<DataArray type="Float32" Name="Velocity" NumberOfComponents="3" >
0 0 0 0 0 0 0 0 0 0 0 0 0 0 0 0 0 0 0 0 0 0 0 0 0 0 0 0 0 0 0 0 0 0 0 0 0 0 0 
</DataArray>
<DataArray type="Float32" Name="Force" NumberOfComponents="3" >
-3.12121e-10 -8.13664e-12 1.20086e-09 -3.20136e-10 -1.20024e-11 1.23468e-09 -3.06638e-10 -8.92697e-12 1.06242e-09 -2.93317e-10 -9.92014e-12 1.00477e-09 -2.77661e-10 -1.02244e-11 1.02608e-09 -2.793e-10 -1.17286e-11 9.3886e-10 -2.8344e-10 -1.16184e-11 9.36539e-10 -1.60251e-10 -1.50665e-11 4.19301e-10 -1.48215e-10 -1.48155e-11 4.09765e-10 -2.16726e-10 -5.5939e-12 5.51707e-10 -6.95575e-11 -7.11288e-12 1.5805e-10 -1.65284e-10 -9.72262e-12 4.27468e-10 -1.44805e-10 -1.21639e-11 3.58465e-10 
</DataArray>
<DataArray type="Float32" Name="Active" NumberOfComponents="1" >
0 0 0 0 0 0 0 0 0 0 0 0 0 
</DataArray>
</PointData>
<CellData /> 
<Cells>
<DataArray type="Int32" Name="connectivity" format="ascii">
0 1 2 3 4 5 6 7 8 9 10 11 12 </DataArray>
<DataArray type="Int32" Name="offsets" format="ascii">
1 2 3 4 5 6 7 8 9 10 11 12 13 </DataArray>
<DataArray type="UInt8" Name="types" format="ascii">
1 1 1 1 1 1 1 1 1 1 1 1 1 </DataArray>
</Cells>
<Points>
<DataArray type="Float32" Name="Position" NumberOfComponents="3" >
0.00578799 0.00103033 -0.00589768 0.00553453 0.00130821 -0.00542997 0.00661478 0.00119328 -0.00728142 0.00686803 0.00124885 -0.00768317 0.00623965 0.00153553 -0.00659517 0.00684926 0.00163564 -0.00758644 0.00668486 0.00185721 -0.00727393 0.00830288 0.00343005 -0.00868483 0.00704196 0.0039218 -0.00612495 0.00983463 0.00169259 -0.0125791 0.00741526 0.00482894 -0.00541316 0.00902892 0.00283375 -0.010649 0.00935429 0.00303888 -0.0109846 
</DataArray>
</Points>
</Piece>
</UnstructuredGrid>
</VTKFile>
