<?xml version="1.0"?>
<VTKFile type="UnstructuredGrid" version="0.1" byte_order="LittleEndian">
<UnstructuredGrid>
<Piece NumberOfPoints="4" NumberOfCells="4">
<PointData Vectors="Particles">
<DataArray type="Float32" Name="Mass" NumberOfComponents="1" >
1.41117e-08 1.41117e-08 1.41117e-08 1.41117e-08 
</DataArray>
<DataArray type="Float32" Name="Radius" NumberOfComponents="1" >
0.00015 0.00015 0.00015 0.00015 
</DataArray>
<DataArray type="Float32" Name="Velocity" NumberOfComponents="3" >
0 0 0 0.00272277 2.60369e-05 -0.00459561 0.00274783 1.60776e-05 -0.00458431 0 0 0 
</DataArray>
<DataArray type="Float32" Name="Force" NumberOfComponents="3" >
-1.56411e-10 -3.71394e-12 3.75194e-10 -5.02214e-12 -3.7273e-12 1.61828e-12 -5.13891e-12 -1.30853e-12 -7.15118e-13 -1.62786e-13 8.49825e-13 -1.05198e-12 
</DataArray>
<DataArray type="Float32" Name="Active" NumberOfComponents="1" >
0 1 1 0 
</DataArray>
</PointData>
<CellData /> 
<Cells>
<DataArray type="Int32" Name="connectivity" format="ascii">
0 1 2 3 </DataArray>
<DataArray type="Int32" Name="offsets" format="ascii">
1 2 3 4 </DataArray>
<DataArray type="UInt8" Name="types" format="ascii">
1 1 1 1 </DataArray>
</Cells>
<Points>
<DataArray type="Float32" Name="Position" NumberOfComponents="3" >
0.0111411 0.00151719 -0.0148618 0.0162798 0.00707782 -0.0131335 0.015792 0.00696287 -0.0130742 0.012091 0.00450592 -0.0137111 
</DataArray>
</Points>
</Piece>
</UnstructuredGrid>
</VTKFile>
