<?xml version="1.0"?>
<VTKFile type="UnstructuredGrid" version="0.1" byte_order="LittleEndian">
<UnstructuredGrid>
<Piece NumberOfPoints="38" NumberOfCells="38">
<PointData Vectors="Particles">
<DataArray type="Float32" Name="Mass" NumberOfComponents="1" >
1.41117e-08 1.41117e-08 1.41117e-08 1.41117e-08 1.41117e-08 1.41117e-08 1.41117e-08 1.41117e-08 1.41117e-08 1.41117e-08 1.41117e-08 1.41117e-08 1.41117e-08 1.41117e-08 1.41117e-08 1.41117e-08 1.41117e-08 1.41117e-08 1.41117e-08 1.41117e-08 1.41117e-08 1.41117e-08 1.41117e-08 1.41117e-08 1.41117e-08 1.41117e-08 1.41117e-08 1.41117e-08 1.41117e-08 1.41117e-08 1.41117e-08 1.41117e-08 1.41117e-08 1.41117e-08 1.41117e-08 1.41117e-08 1.41117e-08 1.41117e-08 
</DataArray>
<DataArray type="Float32" Name="Radius" NumberOfComponents="1" >
0.00015 0.00015 0.00015 0.00015 0.00015 0.00015 0.00015 0.00015 0.00015 0.00015 0.00015 0.00015 0.00015 0.00015 0.00015 0.00015 0.00015 0.00015 0.00015 0.00015 0.00015 0.00015 0.00015 0.00015 0.00015 0.00015 0.00015 0.00015 0.00015 0.00015 0.00015 0.00015 0.00015 0.00015 0.00015 0.00015 0.00015 0.00015 
</DataArray>
<DataArray type="Float32" Name="Velocity" NumberOfComponents="3" >
0 0 0 0 0 0 0 0 0 0 0 0 0 0 0 0 0 0 0 0 0 0 0 0 0 0 0 0 0 0 0 0 0 0 0 0 0 0 0 0 0 0 -0.00424322 0.000120644 -0.00651607 -0.0044849 0.000100127 -0.00722474 0 0 0 -0.00841553 4.18325e-05 -0.0132861 -0.00300339 0.000329836 -0.004111 0 0 0 0 0 0 0 0 0 -0.00186855 3.59454e-05 -0.00319117 0 0 0 0 0 0 -0.00706357 0.000101248 -0.0110457 -0.00319599 0.000101755 -0.00518253 0 0 0 0 0 0 0 0 0 -0.00218693 0.00018986 -0.00308731 0 0 0 -0.00457507 4.94403e-05 -0.00760285 -0.00367865 0.000107991 -0.00611581 -0.00180312 0.000105993 -0.00300298 -0.00276287 9.38369e-05 -0.00423238 0 0 0 0 0 0 
</DataArray>
<DataArray type="Float32" Name="Force" NumberOfComponents="3" >
2.44612e-10 -4.07413e-12 1.57858e-09 3.00134e-10 -7.17213e-12 1.4844e-09 2.30608e-10 9.75129e-12 1.64202e-09 2.7902e-10 -8.11136e-12 1.35767e-09 2.88048e-10 -7.75791e-12 1.33154e-09 2.92006e-10 -9.16211e-12 1.17713e-09 3.16853e-10 -1.21058e-11 1.243e-09 2.81878e-10 -1.05844e-11 1.10151e-09 2.96389e-10 -9.55188e-12 9.7186e-10 2.46669e-10 -1.03677e-11 1.326e-09 3.13972e-10 -1.46843e-11 1.23477e-09 2.73238e-10 -1.53651e-11 1.04666e-09 2.50101e-10 -1.1551e-11 1.25624e-09 2.5769e-10 -1.30008e-11 7.65445e-10 8.06715e-12 -1.27804e-12 -1.17909e-12 6.13233e-12 7.34457e-13 -6.90783e-13 2.57356e-10 -2.07133e-11 9.19599e-10 1.39356e-11 -3.62694e-12 -5.60105e-12 5.45286e-13 -4.00447e-12 -1.45124e-12 1.22832e-10 2.22538e-12 5.34844e-10 1.92665e-10 3.16188e-11 1.27787e-09 2.59474e-10 -7.61412e-12 7.67739e-10 -1.73262e-12 4.18001e-13 -2.65036e-12 1.78444e-10 -1.40955e-11 4.67136e-10 2.63542e-10 -1.75455e-11 1.09492e-09 1.06608e-11 -5.22587e-13 -2.76754e-12 5.95125e-12 -2.10588e-12 9.11018e-12 9.66097e-11 -1.42277e-11 2.55758e-10 1.65439e-10 -1.67417e-11 4.94156e-10 2.31762e-10 1.25051e-13 6.67917e-10 1.52537e-11 -5.42178e-12 1.29701e-11 1.00856e-10 -1.38885e-11 2.68531e-10 -6.0713e-13 -3.78669e-12 -1.58776e-12 3.11063e-12 -2.47062e-12 -1.04944e-13 -4.00627e-12 2.55385e-12 -9.44897e-12 1.74534e-11 -2.12078e-12 2.15682e-11 1.73114e-10 1.20928e-11 9.5038e-10 1.78168e-10 -1.69854e-11 5.9081e-10 
</DataArray>
<DataArray type="Float32" Name="Active" NumberOfComponents="1" >
0 0 0 0 0 0 0 0 0 0 0 0 0 0 1 1 0 1 1 0 0 0 1 0 0 1 1 0 0 0 1 0 1 1 1 1 0 0 
</DataArray>
</PointData>
<CellData /> 
<Cells>
<DataArray type="Int32" Name="connectivity" format="ascii">
0 1 2 3 4 5 6 7 8 9 10 11 12 13 14 15 16 17 18 19 20 21 22 23 24 25 26 27 28 29 30 31 32 33 34 35 36 37 </DataArray>
<DataArray type="Int32" Name="offsets" format="ascii">
1 2 3 4 5 6 7 8 9 10 11 12 13 14 15 16 17 18 19 20 21 22 23 24 25 26 27 28 29 30 31 32 33 34 35 36 37 38 </DataArray>
<DataArray type="UInt8" Name="types" format="ascii">
1 1 1 1 1 1 1 1 1 1 1 1 1 1 1 1 1 1 1 1 1 1 1 1 1 1 1 1 1 1 1 1 1 1 1 1 1 1 </DataArray>
</Cells>
<Points>
<DataArray type="Float32" Name="Position" NumberOfComponents="3" >
-0.00330695 0.000894683 -0.00153799 -0.00406132 0.000869355 -0.00305144 -0.0027379 0.00143707 -0.000441734 -0.00448237 0.00119956 -0.00350959 -0.00463907 0.00129297 -0.00374304 -0.00547388 0.00152515 -0.00516406 -0.00510234 0.00174159 -0.00438765 -0.00561102 0.00178757 -0.00530898 -0.00683707 0.00157415 -0.00758799 -0.00370881 0.0022157 -0.00162416 -0.00491373 0.00198681 -0.00379021 -0.00552373 0.00219821 -0.00492505 -0.00378247 0.00251102 -0.00154209 -0.00762416 0.00227636 -0.00842196 -0.0106634 0.00661021 -0.00480029 -0.0125758 0.00647112 -0.00828421 -0.00568348 0.00266831 -0.00489141 -0.014661 0.00640366 -0.00720649 -0.00733899 0.00663264 -0.000180452 -0.00387596 0.00463084 0.000719431 -0.00274902 0.00292405 0.000588596 -0.00698132 0.00273412 -0.00713438 -0.0118854 0.00514248 -0.0125564 -0.00891609 0.00279084 -0.010502 -0.00407049 0.00309935 -0.00157413 -0.0133547 0.00658822 -0.00622757 -0.0114925 0.00627403 -0.00819569 -0.00567517 0.00501828 -0.0018578 -0.00521692 0.00432709 -0.00246796 -0.00692168 0.00321135 -0.00668009 -0.00756927 0.00651267 -0.00147779 -0.00578334 0.00496436 -0.00212325 -0.0144223 0.00625686 -0.0122335 -0.0131151 0.00619507 -0.0108933 -0.0100037 0.00566395 -0.00819472 -0.00941083 0.00644535 -0.0043064 -0.00324967 0.00361318 0.000239592 -0.00476953 0.00411367 -0.0019941 
</DataArray>
</Points>
</Piece>
</UnstructuredGrid>
</VTKFile>
