<?xml version="1.0"?>
<VTKFile type="UnstructuredGrid" version="0.1" byte_order="LittleEndian">
<UnstructuredGrid>
<Piece NumberOfPoints="302" NumberOfCells="302">
<PointData Vectors="Particles">
<DataArray type="Float32" Name="Mass" NumberOfComponents="1" >
1.41117e-08 1.41117e-08 1.41117e-08 1.41117e-08 1.41117e-08 1.41117e-08 1.41117e-08 1.41117e-08 1.41117e-08 1.41117e-08 1.41117e-08 1.41117e-08 1.41117e-08 1.41117e-08 1.41117e-08 1.41117e-08 1.41117e-08 1.41117e-08 1.41117e-08 1.41117e-08 1.41117e-08 1.41117e-08 1.41117e-08 1.41117e-08 1.41117e-08 1.41117e-08 1.41117e-08 1.41117e-08 1.41117e-08 1.41117e-08 1.41117e-08 1.41117e-08 1.41117e-08 1.41117e-08 1.41117e-08 1.41117e-08 1.41117e-08 1.41117e-08 1.41117e-08 1.41117e-08 1.41117e-08 1.41117e-08 1.41117e-08 1.41117e-08 1.41117e-08 1.41117e-08 1.41117e-08 1.41117e-08 1.41117e-08 1.41117e-08 1.41117e-08 1.41117e-08 1.41117e-08 1.41117e-08 1.41117e-08 1.41117e-08 1.41117e-08 1.41117e-08 1.41117e-08 1.41117e-08 1.41117e-08 1.41117e-08 1.41117e-08 1.41117e-08 1.41117e-08 1.41117e-08 1.41117e-08 1.41117e-08 1.41117e-08 1.41117e-08 1.41117e-08 1.41117e-08 1.41117e-08 1.41117e-08 1.41117e-08 1.41117e-08 1.41117e-08 1.41117e-08 1.41117e-08 1.41117e-08 1.41117e-08 1.41117e-08 1.41117e-08 1.41117e-08 1.41117e-08 1.41117e-08 1.41117e-08 1.41117e-08 1.41117e-08 1.41117e-08 1.41117e-08 1.41117e-08 1.41117e-08 1.41117e-08 1.41117e-08 1.41117e-08 1.41117e-08 1.41117e-08 1.41117e-08 1.41117e-08 1.41117e-08 1.41117e-08 1.41117e-08 1.41117e-08 1.41117e-08 1.41117e-08 1.41117e-08 1.41117e-08 1.41117e-08 1.41117e-08 1.41117e-08 1.41117e-08 1.41117e-08 1.41117e-08 1.41117e-08 1.41117e-08 1.41117e-08 1.41117e-08 1.41117e-08 1.41117e-08 1.41117e-08 1.41117e-08 1.41117e-08 1.41117e-08 1.41117e-08 1.41117e-08 1.41117e-08 1.41117e-08 1.41117e-08 1.41117e-08 1.41117e-08 1.41117e-08 1.41117e-08 1.41117e-08 1.41117e-08 1.41117e-08 1.41117e-08 1.41117e-08 1.41117e-08 1.41117e-08 1.41117e-08 1.41117e-08 1.41117e-08 1.41117e-08 1.41117e-08 1.41117e-08 1.41117e-08 1.41117e-08 1.41117e-08 1.41117e-08 1.41117e-08 1.41117e-08 1.41117e-08 1.41117e-08 1.41117e-08 1.41117e-08 1.41117e-08 1.41117e-08 1.41117e-08 1.41117e-08 1.41117e-08 1.41117e-08 1.41117e-08 1.41117e-08 1.41117e-08 1.41117e-08 1.41117e-08 1.41117e-08 1.41117e-08 1.41117e-08 1.41117e-08 1.41117e-08 1.41117e-08 1.41117e-08 1.41117e-08 1.41117e-08 1.41117e-08 1.41117e-08 1.41117e-08 1.41117e-08 1.41117e-08 1.41117e-08 1.41117e-08 1.41117e-08 1.41117e-08 1.41117e-08 1.41117e-08 1.41117e-08 1.41117e-08 1.41117e-08 1.41117e-08 1.41117e-08 1.41117e-08 1.41117e-08 1.41117e-08 1.41117e-08 1.41117e-08 1.41117e-08 1.41117e-08 1.41117e-08 1.41117e-08 1.41117e-08 1.41117e-08 1.41117e-08 1.41117e-08 1.41117e-08 1.41117e-08 1.41117e-08 1.41117e-08 1.41117e-08 1.41117e-08 1.41117e-08 1.41117e-08 1.41117e-08 1.41117e-08 1.41117e-08 1.41117e-08 1.41117e-08 1.41117e-08 1.41117e-08 1.41117e-08 1.41117e-08 1.41117e-08 1.41117e-08 1.41117e-08 1.41117e-08 1.41117e-08 1.41117e-08 1.41117e-08 1.41117e-08 1.41117e-08 1.41117e-08 1.41117e-08 1.41117e-08 1.41117e-08 1.41117e-08 1.41117e-08 1.41117e-08 1.41117e-08 1.41117e-08 1.41117e-08 1.41117e-08 1.41117e-08 1.41117e-08 1.41117e-08 1.41117e-08 1.41117e-08 1.41117e-08 1.41117e-08 1.41117e-08 1.41117e-08 1.41117e-08 1.41117e-08 1.41117e-08 1.41117e-08 1.41117e-08 1.41117e-08 1.41117e-08 1.41117e-08 1.41117e-08 1.41117e-08 1.41117e-08 1.41117e-08 1.41117e-08 1.41117e-08 1.41117e-08 1.41117e-08 1.41117e-08 1.41117e-08 1.41117e-08 1.41117e-08 1.41117e-08 1.41117e-08 1.41117e-08 1.41117e-08 1.41117e-08 1.41117e-08 1.41117e-08 1.41117e-08 1.41117e-08 1.41117e-08 1.41117e-08 1.41117e-08 1.41117e-08 1.41117e-08 1.41117e-08 1.41117e-08 1.41117e-08 1.41117e-08 1.41117e-08 1.41117e-08 1.41117e-08 1.41117e-08 1.41117e-08 1.41117e-08 1.41117e-08 1.41117e-08 1.41117e-08 1.41117e-08 1.41117e-08 1.41117e-08 1.41117e-08 
</DataArray>
<DataArray type="Float32" Name="Radius" NumberOfComponents="1" >
0.00015 0.00015 0.00015 0.00015 0.00015 0.00015 0.00015 0.00015 0.00015 0.00015 0.00015 0.00015 0.00015 0.00015 0.00015 0.00015 0.00015 0.00015 0.00015 0.00015 0.00015 0.00015 0.00015 0.00015 0.00015 0.00015 0.00015 0.00015 0.00015 0.00015 0.00015 0.00015 0.00015 0.00015 0.00015 0.00015 0.00015 0.00015 0.00015 0.00015 0.00015 0.00015 0.00015 0.00015 0.00015 0.00015 0.00015 0.00015 0.00015 0.00015 0.00015 0.00015 0.00015 0.00015 0.00015 0.00015 0.00015 0.00015 0.00015 0.00015 0.00015 0.00015 0.00015 0.00015 0.00015 0.00015 0.00015 0.00015 0.00015 0.00015 0.00015 0.00015 0.00015 0.00015 0.00015 0.00015 0.00015 0.00015 0.00015 0.00015 0.00015 0.00015 0.00015 0.00015 0.00015 0.00015 0.00015 0.00015 0.00015 0.00015 0.00015 0.00015 0.00015 0.00015 0.00015 0.00015 0.00015 0.00015 0.00015 0.00015 0.00015 0.00015 0.00015 0.00015 0.00015 0.00015 0.00015 0.00015 0.00015 0.00015 0.00015 0.00015 0.00015 0.00015 0.00015 0.00015 0.00015 0.00015 0.00015 0.00015 0.00015 0.00015 0.00015 0.00015 0.00015 0.00015 0.00015 0.00015 0.00015 0.00015 0.00015 0.00015 0.00015 0.00015 0.00015 0.00015 0.00015 0.00015 0.00015 0.00015 0.00015 0.00015 0.00015 0.00015 0.00015 0.00015 0.00015 0.00015 0.00015 0.00015 0.00015 0.00015 0.00015 0.00015 0.00015 0.00015 0.00015 0.00015 0.00015 0.00015 0.00015 0.00015 0.00015 0.00015 0.00015 0.00015 0.00015 0.00015 0.00015 0.00015 0.00015 0.00015 0.00015 0.00015 0.00015 0.00015 0.00015 0.00015 0.00015 0.00015 0.00015 0.00015 0.00015 0.00015 0.00015 0.00015 0.00015 0.00015 0.00015 0.00015 0.00015 0.00015 0.00015 0.00015 0.00015 0.00015 0.00015 0.00015 0.00015 0.00015 0.00015 0.00015 0.00015 0.00015 0.00015 0.00015 0.00015 0.00015 0.00015 0.00015 0.00015 0.00015 0.00015 0.00015 0.00015 0.00015 0.00015 0.00015 0.00015 0.00015 0.00015 0.00015 0.00015 0.00015 0.00015 0.00015 0.00015 0.00015 0.00015 0.00015 0.00015 0.00015 0.00015 0.00015 0.00015 0.00015 0.00015 0.00015 0.00015 0.00015 0.00015 0.00015 0.00015 0.00015 0.00015 0.00015 0.00015 0.00015 0.00015 0.00015 0.00015 0.00015 0.00015 0.00015 0.00015 0.00015 0.00015 0.00015 0.00015 0.00015 0.00015 0.00015 0.00015 0.00015 0.00015 0.00015 0.00015 0.00015 0.00015 0.00015 0.00015 0.00015 0.00015 0.00015 0.00015 0.00015 0.00015 0.00015 0.00015 0.00015 0.00015 0.00015 0.00015 0.00015 0.00015 0.00015 0.00015 0.00015 0.00015 0.00015 0.00015 0.00015 0.00015 0.00015 0.00015 0.00015 0.00015 0.00015 0.00015 0.00015 0.00015 0.00015 
</DataArray>
<DataArray type="Float32" Name="Velocity" NumberOfComponents="3" >
0.0106153 7.66843e-05 -0.0200325 0.013037 -1.86495e-05 -0.0247334 0.00785704 -8.40943e-05 -0.0143634 0.0123944 9.76945e-05 -0.0234684 0.0138879 -2.36594e-05 -0.0264285 0.0145096 -9.07036e-06 -0.027738 0.00763361 -0.000163002 -0.0139713 0.0112854 -9.34861e-05 -0.0214757 0.0143032 -2.62017e-05 -0.0274362 0.0101718 0.000162351 -0.0191842 0.0164815 -4.08111e-05 -0.0316201 0.015875 -7.32013e-05 -0.0305263 0.00799516 -0.000258199 -0.0149749 0.0135963 6.72586e-05 -0.0260857 0.0161281 -6.81276e-05 -0.0309999 0.0164423 4.50781e-06 -0.0315646 0.0153712 5.2329e-05 -0.0295281 0.0157711 -8.75149e-05 -0.0303655 0 0 0 0.0110894 -9.56719e-05 -0.0211806 0.0135481 8.22972e-05 -0.0260172 0 0 0 0.0070144 2.61204e-05 -0.0127146 0.0161866 -8.64044e-05 -0.0311382 0.0167906 1.73651e-05 -0.0322023 0.0124949 0.000111105 -0.0240542 0.0160578 -0.0001056 -0.0309213 0.00794696 6.239e-05 -0.0148122 0.0131241 9.02961e-05 -0.0252058 0 0 0 0.0119963 5.9411e-05 -0.0230121 0.0169266 7.86583e-05 -0.0322874 0.0156618 0.000149463 -0.0300041 0.00952451 -5.74906e-05 -0.0181998 0.0179667 -0.00011505 -0.034004 0.0121393 -3.31623e-05 -0.023414 0.0180603 7.08152e-05 -0.0340705 0.00732746 -0.000128641 -0.0139045 0.0109139 1.49442e-05 -0.0210211 0.0138692 0.000152644 -0.0266082 0.018803 4.3344e-05 -0.0352803 0.0160661 0.000185515 -0.0305274 0.012811 0.0001255 -0.0246278 0.0143235 -0.000291639 -0.0273706 0.0192478 1.22414e-05 -0.0360136 0.00927422 1.62623e-05 -0.0178386 0.00388796 -0.000108942 -0.00572429 0.01887 6.82856e-05 -0.0352859 0.0163069 0.000213937 -0.0308113 0.019259 5.42742e-05 -0.0359165 0 0 0 0.00553962 -0.000122559 -0.0102592 0.0197677 -1.58445e-05 -0.0368111 0.0169756 -0.000307214 -0.0317908 0.00954091 -9.74767e-05 -0.0182898 0.0199673 -4.07463e-05 -0.0370958 0.019163 0.000108486 -0.0355148 0.0195545 -0.000121503 -0.0361368 0 0 0 0.0132681 0.000238016 -0.0254536 0.0096149 -0.000194952 -0.0183707 0.0164167 -0.000341413 -0.0305952 0.0147375 0.000303896 -0.0278872 0.019963 -7.34184e-05 -0.0369504 0.0113551 -0.000319399 -0.0215717 0.00366557 -0.000164147 -0.00537104 0.0175039 -0.00030223 -0.0324357 0.0185371 0.000155578 -0.0343768 0.020102 -5.09723e-05 -0.037247 0.0178872 0.000191002 -0.0332308 0.0199932 5.53438e-05 -0.0370072 0.0114656 -0.000347716 -0.0217783 0.00801237 0.000150745 -0.0157171 0.0196546 9.08908e-05 -0.0363152 0.0193394 -0.000160584 -0.0355746 0 0 0 0.0134864 -0.000418185 -0.0254118 0.0171315 0.000241301 -0.0318215 0.0178091 0.000199446 -0.0329633 0.0201413 -7.82157e-05 -0.0371737 0.0148784 -0.000394175 -0.0277434 0.00803494 0.000193411 -0.0158838 0.0141476 -0.000418881 -0.0264719 0.018316 -0.000251672 -0.0335811 0.0176586 0.000207394 -0.0325979 0 0 0 0.00844462 0.000226212 -0.016792 0.0173995 -0.000276673 -0.0318656 0.0150242 -0.00037391 -0.0278256 0.0164421 0.000269606 -0.0304188 0.00699755 0.00025032 -0.0140043 0.0137017 -0.000421118 -0.0255754 0.0178907 0.000188882 -0.032815 0.0198271 -0.000166697 -0.0362017 0.0203572 -0.000125458 -0.0373019 0 0 0 0.0140323 0.000322762 -0.0264568 0.0206806 -7.29417e-05 -0.0379818 0 0 0 0.0174055 -0.00026712 -0.0317441 0.0186556 -0.000229005 -0.0339161 0.0202169 -0.000154278 -0.0369195 0.00994768 0.000318716 -0.0198535 0.015475 0.000274258 -0.0287131 0.0207561 4.32774e-05 -0.0380886 0.00608438 0.000301994 -0.0122963 0.0101896 0.000338775 -0.0202838 0.0201416 0.000114938 -0.0368414 0.0145032 0.00029388 -0.027124 0 0 0 0.0208821 4.52164e-05 -0.0382509 0.0141674 -0.000339377 -0.026209 0.0210508 -3.306e-05 -0.0385632 0.0205196 0.00010511 -0.0374704 0.0175113 0.000209148 -0.0318841 0.0194228 -0.000215507 -0.0351739 0.0154246 -0.000310413 -0.0282151 0.0173866 -0.00027051 -0.0314977 0.0188345 0.000183584 -0.0342176 0.017626 0.000212591 -0.0320383 0 0 0 0.0147475 -0.000319578 -0.0270607 0.0145573 -0.000323429 -0.0267336 0.00484316 0.000356279 -0.00978457 0 0 0 0.0194368 -0.000230296 -0.0350973 0.0118423 -0.000393561 -0.0223126 0.0143797 0.000295119 -0.0267024 0.0212154 1.52189e-05 -0.0386645 0.0207475 0.000112142 -0.0377258 0.00676107 -0.000378105 -0.0129544 0.0151693 -0.000327708 -0.0276297 0 0 0 0.0208653 0.000111598 -0.0378634 0.0151358 -0.000343375 -0.0274816 0.0214056 -3.94851e-05 -0.0389119 0.0175344 -0.000293087 -0.0315371 0.0211243 8.97681e-05 -0.0383024 0.0214159 -1.7587e-05 -0.0388791 0.0200783 0.000182313 -0.036263 0.0192066 0.000223812 -0.0346022 0.0118941 -0.000355275 -0.02226 0.00838792 0.000510878 -0.0166922 0.020395 0.000178902 -0.0367399 0.0213106 8.2684e-05 -0.0385085 0.021398 -0.000127284 -0.038569 0.0213345 -0.000151252 -0.0383914 0.0215171 2.31691e-05 -0.0388548 0.0185063 0.000260692 -0.033175 0.0212531 -0.000179684 -0.0381625 0.0214236 -0.000136067 -0.0385181 0.0188031 0.000261157 -0.0336404 0 0 0 0.0149571 -0.000389205 -0.0268974 0 0 0 0.0215363 7.04344e-05 -0.0387503 0.0197062 0.000231159 -0.0352264 0.0200984 -0.000281368 -0.0357673 0.0210291 -0.000218105 -0.0375007 0.0207522 0.000188691 -0.0370481 0.00776192 0.000533591 -0.01559 0.0212245 -0.000205597 -0.0378031 0.0216618 4.49001e-05 -0.0388444 0.0105066 0.000433229 -0.0200787 0 0 0 0.0121381 -0.000455588 -0.0222684 0.0207252 -0.000249159 -0.0367838 0.0216113 -0.000124572 -0.0385964 0.0208715 -0.000239937 -0.0370073 0.00916314 -0.000457405 -0.0175507 0.0146677 -0.0004033 -0.0262095 0.0206129 0.0002078 -0.0366043 0.00641169 0.000686841 -0.0127173 0.0215954 -0.000139978 -0.0384683 0.00857596 0.000431734 -0.016972 0 0 0 0.021686 7.30612e-05 -0.0387724 0 0 0 0.0165393 0.000293796 -0.0294585 0.0195999 -0.000302089 -0.0345478 0.0157507 0.000310378 -0.0281686 0.00854555 -0.000486625 -0.0165041 0.0214894 -0.000175833 -0.0381757 0.0192347 -0.00031016 -0.0338584 0.02126 -0.000211013 -0.0376508 0.0149041 0.000333729 -0.0267746 0.0207378 -0.000255813 -0.0365974 0.017667 0.000281408 -0.0312089 0.0215256 0.000122778 -0.0382736 0.0211745 -0.00022287 -0.0373798 0.0217301 8.87208e-05 -0.0387033 0.013299 0.000382722 -0.024279 0.0129361 -0.000445195 -0.0232755 0.0202407 -0.000286557 -0.0355773 0.00745883 -0.000544879 -0.0146234 0.00581931 0.00062749 -0.0116875 0.00634126 -0.00058522 -0.012586 0.0108364 0.000450093 -0.0203535 0.019771 -0.000297351 -0.0346619 0.0103115 -0.000523619 -0.0191718 0.0156605 -0.000350628 -0.0275456 0.00904149 -0.000516954 -0.0171889 0.0218612 -7.82558e-05 -0.0387967 0.019122 0.000270255 -0.0335424 0.021085 0.000189731 -0.0372001 0.0100122 0.000463624 -0.0189299 0.0211559 0.000182385 -0.037312 0.0085415 0.000470488 -0.0165424 0.00824454 -0.000536371 -0.0158633 0.0216146 0.000123235 -0.0382511 0.0120572 -0.000451765 -0.0217426 0.011191 -0.000492627 -0.0203782 0.00886899 -0.000548947 -0.0168366 0.0130075 0.000398739 -0.0235693 0.0206198 -0.000271091 -0.0361019 0.0129126 0.000402 -0.0234073 0.0124597 -0.000424451 -0.0223393 0.00547914 0.000502394 -0.0112788 0.0215106 -0.000199262 -0.0378536 0.0136733 0.000373781 -0.0244865 0.00755419 0.000474208 -0.0149035 0.00982799 -0.000553322 -0.0182302 0.0205674 -0.000279249 -0.0359009 0.00786962 -0.000553283 -0.0151498 0 0 0 0.0105323 -0.000505939 -0.0192585 0.0153819 0.000318987 -0.0270495 0.020634 -0.000278622 -0.0359937 0.0138111 -0.000354236 -0.0243414 0 0 0 0.0212536 0.000172507 -0.0373449 0.0215252 0.000137839 -0.0378927 0.0161512 0.000307017 -0.028245 0.0179785 0.000287865 -0.0312765 0.0180617 0.000287137 -0.0314182 0.0125638 0.000409881 -0.0225688 0.0215162 -0.000192881 -0.0377568 0.00481201 -0.000543606 -0.00941376 0.0208756 0.000209263 -0.0365116 0.0210323 0.000197475 -0.0368409 0.00994028 0.000473991 -0.0185029 0.0067362 0.000491085 -0.0134193 0.00689796 0.000491674 -0.0136575 0.0144798 0.000336412 -0.0254013 0.0136252 -0.000351866 -0.0239124 0.0148104 -0.000367001 -0.0257319 0.0120231 0.00041107 -0.0215571 0.00817108 0.000506748 -0.0156314 0.021761 -4.28752e-05 -0.0381974 0.0193694 0.000281702 -0.0335452 0 0 0 0.01605 -0.00037251 -0.0276895 0.00514413 0.000465002 -0.0107969 0.00990784 0.000473789 -0.0183255 0.0110365 -0.000398794 -0.0198765 0.00744035 -0.00055899 -0.0142276 0 0 0 0.0209631 -0.000272683 -0.0365159 0.0172352 0.000305011 -0.0298098 0 0 0 0.00889898 0.000501896 -0.0166929 0.0198 -0.00033667 -0.0341666 0.0197481 -0.000338187 -0.0340673 0.0199921 0.000267897 -0.0346527 0.0184308 0.000299448 -0.0318154 0.0152041 0.000319948 -0.0263853 0.00693739 0.000513121 -0.0135332 0.0204263 -0.000315956 -0.0353747 0.016511 0.000311862 -0.0285529 0.00752637 -0.000548578 -0.0142357 0.00579375 0.000510092 -0.0117224 0.00412062 -0.000420545 -0.00746853 0.0203878 -0.00032267 -0.0352551 0.0141364 0.000334828 -0.0245151 0.0163573 -0.000395421 -0.0279911 0.010488 0.000424877 -0.018877 0.0181288 -0.000403659 -0.0309918 0 0 0 0.013539 0.000343397 -0.0233795 0.00560534 0.00051656 -0.0111227 0.00678738 -0.00051758 -0.0128464 0.0153215 -0.000414805 -0.0260299 0.00539153 0.000512432 -0.0106832 0.00696631 -0.000501649 -0.0131078 0.00515769 -0.000505836 -0.0101361 0.00891972 -0.000376137 -0.0161339 0 0 0 0.00913729 -0.000408278 -0.016343 0.00484653 -0.000564214 -0.00956648 0.00694175 -0.000384907 -0.0127281 0 0 0 0 0 0 0.00408198 0.000441234 -0.00804779 0 0 0 0 0 0 0 0 0 0 0 0 0 0 0 0 0 0 0 0 0 0 0 0 0 0 0 
</DataArray>
<DataArray type="Float32" Name="Force" NumberOfComponents="3" >
1.561e-10 3.91686e-12 1.22183e-10 1.10422e-10 4.99742e-12 8.22899e-11 1.29596e-10 -4.32675e-12 1.81403e-10 1.19755e-10 2.87678e-11 5.14701e-11 7.60182e-11 3.46927e-11 7.2145e-11 5.33227e-11 -5.90587e-12 7.41366e-11 1.36204e-10 -4.05695e-12 1.5164e-10 1.45288e-10 -1.48746e-11 2.55044e-11 5.8823e-11 5.92927e-11 5.08485e-11 1.63709e-10 2.44372e-11 1.65265e-11 -1.16394e-14 3.23022e-11 5.16539e-11 6.50668e-12 4.46483e-11 4.28859e-11 1.47442e-10 -3.02224e-12 8.96662e-11 5.23304e-11 -4.42844e-11 4.72672e-11 2.8495e-13 3.99997e-11 4.72107e-11 5.06049e-12 -4.12222e-12 5.07219e-11 3.32242e-11 -3.76669e-11 4.29485e-11 6.23453e-12 4.8075e-11 4.43474e-11 9.86161e-11 -4.41786e-12 1.05796e-10 1.25964e-10 -2.18469e-11 9.69799e-12 4.89887e-11 -4.91093e-11 4.5877e-11 1.04407e-10 -7.36015e-12 1.30635e-10 1.53391e-10 1.33629e-11 8.89445e-11 -6.38643e-12 4.00908e-11 5.0335e-11 -9.64828e-12 -1.36832e-11 5.18274e-11 9.28282e-11 5.55089e-11 2.10481e-11 -8.46394e-12 4.26674e-11 4.88104e-11 1.68435e-10 1.74621e-11 3.40812e-11 5.70364e-11 -4.47215e-11 3.47969e-11 -2.06251e-11 -1.16031e-12 4.3471e-11 7.86185e-11 -3.16415e-11 1.18485e-11 -2.09204e-11 -8.38957e-12 6.00626e-11 -8.73266e-12 -2.1387e-11 5.87727e-11 1.57026e-10 -1.06143e-11 -3.94264e-11 -4.57259e-11 5.82688e-12 5.44611e-11 1.06401e-10 5.09481e-11 2.83852e-11 -4.19677e-11 6.34329e-12 5.02063e-11 1.92275e-10 1.92967e-14 -3.2197e-11 1.25087e-10 4.29511e-11 1.04492e-11 2.6667e-11 -2.28739e-11 3.63231e-11 -4.11595e-11 1.10181e-11 5.02766e-11 -1.98818e-11 -4.69169e-12 5.68738e-11 5.68548e-11 -2.85243e-11 1.57223e-11 2.65623e-11 2.96675e-11 4.99573e-11 -4.69848e-11 1.201e-11 5.2389e-11 1.40246e-10 -9.43545e-12 -5.27256e-11 1.31901e-10 1.86005e-11 1.09668e-10 -4.73611e-11 1.09373e-11 5.06582e-11 -2.88746e-11 3.7061e-12 5.24864e-11 -4.29738e-11 1.18504e-11 5.50596e-11 -3.42877e-11 1.4983e-12 8.04823e-11 1.88918e-10 3.65996e-12 -7.09761e-12 -4.48917e-11 1.43357e-11 6.03277e-11 -3.74563e-11 -5.37999e-12 6.28874e-11 1.48054e-10 2.74169e-11 -2.77254e-12 -3.57743e-11 1.59553e-11 6.69263e-11 -4.19122e-11 1.20818e-11 6.3881e-11 -3.92472e-11 9.19185e-12 6.58537e-11 1.66713e-10 1.44358e-11 -3.70641e-11 1.67677e-11 -1.32893e-11 2.31119e-11 1.60822e-10 2.51408e-11 1.98122e-11 -3.06616e-11 -4.61762e-12 6.55004e-11 -1.14323e-11 3.47278e-12 4.14562e-11 -3.4425e-11 1.30472e-11 6.66693e-11 1.4479e-10 2.74945e-11 5.97382e-11 1.40983e-10 3.12626e-12 7.14746e-11 -3.99544e-11 7.40948e-13 6.96206e-11 -4.65411e-11 1.09434e-11 6.10701e-11 -3.20678e-11 1.47674e-11 6.76468e-11 -4.6359e-11 1.28673e-11 5.87241e-11 -2.86783e-11 1.33939e-11 6.78936e-11 1.28628e-10 2.56667e-11 5.48915e-11 1.31796e-10 -3.57841e-12 -7.4098e-11 -2.94267e-11 1.30176e-11 6.99566e-11 -3.1302e-11 1.17693e-11 6.76048e-11 -5.0939e-11 -1.10501e-12 1.05879e-10 3.26403e-11 1.45814e-11 5.37629e-11 -4.46526e-11 1.67595e-11 5.80067e-11 -4.42106e-11 1.51503e-11 6.35042e-11 -2.09848e-11 1.5785e-11 7.22297e-11 -5.1494e-12 -3.65316e-12 6.19172e-11 1.1418e-10 -4.08498e-12 -7.28684e-11 1.05301e-11 3.08836e-12 5.67931e-11 -3.20443e-11 1.14179e-11 7.0663e-11 -3.80206e-11 1.65844e-11 6.88367e-11 -4.7036e-11 -2.81033e-12 1.02117e-10 9.16569e-11 -7.86394e-12 -6.68263e-11 -2.29938e-11 1.40251e-11 7.20162e-11 -9.45372e-12 -5.04853e-13 6.86642e-11 -3.80929e-11 1.97608e-11 6.27043e-11 1.35163e-10 -2.52583e-13 -8.861e-11 9.13963e-12 -5.74975e-13 5.36729e-11 -2.75624e-11 1.45144e-11 7.47783e-11 -1.32461e-11 2.07437e-11 6.41489e-11 -1.27399e-11 1.66114e-11 6.48674e-11 -9.87389e-11 4.33614e-12 2.23308e-10 -1.54226e-11 6.29109e-13 3.29618e-11 -1.42175e-11 1.52511e-11 6.56167e-11 1.57379e-10 1.35734e-11 -6.86e-11 -2.41096e-11 2.0119e-11 6.55037e-11 -2.15291e-11 2.53855e-11 5.91767e-11 -1.69475e-11 1.72945e-11 5.91371e-11 5.01468e-11 -2.35203e-11 -5.05431e-11 -2.87341e-11 9.30575e-12 5.76096e-11 -1.85619e-11 1.29845e-11 6.64219e-11 1.59144e-10 2.36765e-12 -1.01132e-10 4.35923e-11 -2.24632e-11 -4.06547e-11 -2.08013e-11 1.16075e-11 6.79809e-11 -2.22336e-11 1.49193e-12 4.58719e-11 1.40736e-10 1.06962e-11 -4.88295e-11 -2.66739e-11 1.16759e-11 5.95086e-11 1.05672e-12 1.18338e-11 6.58301e-11 -2.75722e-11 1.24132e-11 5.46903e-11 -3.06179e-11 1.04952e-11 5.84927e-11 -2.37557e-11 8.37625e-12 7.12507e-11 -3.93703e-11 2.17214e-11 5.30188e-11 -1.60011e-11 2.28398e-11 6.12221e-11 -3.72357e-11 2.48859e-11 5.59204e-11 -3.6652e-11 8.58493e-12 6.42171e-11 -3.12125e-11 8.02501e-12 6.82742e-11 1.1131e-10 1.18352e-11 -9.26579e-12 -9.02384e-12 2.27874e-11 6.14812e-11 -9.30759e-12 2.24549e-11 6.05077e-11 2.02187e-10 4.84132e-12 -1.15218e-10 -4.13871e-11 1.06213e-12 9.10767e-11 -4.63331e-11 2.11231e-11 4.93356e-11 2.38937e-11 1.77956e-11 4.02806e-11 -1.24814e-11 -4.46336e-13 6.17461e-11 -3.46571e-11 1.10223e-11 4.50901e-11 -3.72834e-11 9.53008e-12 4.95158e-11 1.68826e-10 2.40724e-11 1.82285e-11 -2.12454e-11 2.67764e-11 5.54043e-11 -2.66475e-11 -2.00511e-12 6.0681e-11 -3.92858e-11 8.91554e-12 4.51435e-11 -3.21886e-11 2.47121e-11 5.39066e-11 -3.46195e-11 1.11762e-11 3.60142e-11 -5.70101e-11 2.04419e-11 5.0596e-11 -3.90057e-11 8.92011e-12 4.05931e-11 -3.66894e-11 9.7309e-12 3.46536e-11 -4.33986e-11 7.69478e-12 4.75483e-11 -5.06979e-11 6.29101e-12 5.3417e-11 1.71107e-11 2.60331e-11 4.78197e-11 5.70815e-11 -2.38252e-12 -1.225e-11 -4.31618e-11 7.06496e-12 4.22288e-11 -3.86941e-11 7.92841e-12 3.40016e-11 -3.23457e-11 1.21741e-11 2.61459e-11 -3.24108e-11 1.2404e-11 2.64313e-11 -3.5557e-11 8.1109e-12 2.89458e-11 -5.54811e-11 5.39379e-12 5.21684e-11 -3.29067e-11 1.2409e-11 2.69918e-11 -3.18875e-11 1.2596e-11 2.42435e-11 -5.46322e-11 5.05541e-12 5.13255e-11 7.55142e-11 8.21869e-12 -8.20647e-12 -5.3119e-11 1.80184e-11 5.19899e-11 -8.04295e-12 -2.25378e-11 1.72599e-11 -3.64489e-11 6.72274e-12 2.78444e-11 -4.90043e-11 5.46399e-12 4.69097e-11 -5.20432e-11 1.56019e-11 3.48475e-11 -3.74515e-11 1.53418e-11 2.34534e-11 -4.21178e-11 6.88625e-12 3.58983e-11 6.02631e-11 -8.55845e-12 -3.83925e-12 -3.41844e-11 1.49017e-11 1.9448e-11 -3.40967e-11 8.43892e-12 2.14248e-11 2.08876e-11 -1.01342e-11 4.19123e-11 1.78478e-10 1.18751e-12 -8.99345e-11 -1.91177e-11 2.29669e-11 4.57678e-11 -4.29983e-11 1.7873e-11 2.42128e-11 -3.00567e-11 1.4695e-11 1.47447e-11 -3.90056e-11 1.80621e-11 1.97287e-11 2.26539e-11 1.8793e-11 3.83092e-11 -5.72999e-11 1.35488e-11 5.24712e-11 -4.29116e-11 7.07429e-12 3.16738e-11 8.54333e-11 2.03621e-11 -1.93347e-11 -2.68601e-11 1.55595e-11 1.10765e-11 3.81604e-11 -1.9051e-11 -2.66972e-12 1.15371e-10 4.64388e-11 -5.26724e-11 -3.29285e-11 9.3185e-12 1.73405e-11 1.83104e-10 2.51377e-11 -7.27263e-12 -6.7257e-11 7.81556e-12 5.15859e-11 -5.35949e-11 1.94923e-11 2.9922e-11 -6.70217e-11 8.27424e-12 5.2292e-11 2.24694e-11 1.46883e-11 3.42743e-11 -2.78106e-11 1.73796e-11 1.08514e-11 -5.65779e-11 1.84077e-11 3.39497e-11 -2.86926e-11 1.79591e-11 9.26874e-12 -6.49236e-11 9.40781e-12 5.74072e-11 -3.5557e-11 1.99544e-11 1.3631e-11 -6.59789e-11 7.29775e-12 5.12715e-11 -2.83988e-11 1.03053e-11 1.01961e-11 -2.50941e-11 1.94401e-11 4.20514e-12 -2.57623e-11 1.11525e-11 7.7541e-12 -5.33271e-11 8.53069e-12 6.35386e-11 -4.88038e-11 1.21026e-11 5.05985e-11 -4.01434e-11 2.19016e-11 1.43655e-11 2.50635e-11 1.01455e-11 2.19469e-11 7.95993e-11 1.89172e-11 -1.4255e-11 6.28431e-11 1.39833e-11 -6.61276e-12 -1.78011e-11 3.66955e-12 5.94141e-11 -4.34034e-11 2.40629e-11 1.66122e-11 -1.08364e-11 2.21234e-11 3.89124e-11 -6.35079e-11 1.1277e-11 5.43593e-11 2.04931e-11 2.68851e-11 3.20209e-11 -7.82462e-12 1.63593e-11 -7.20652e-12 -4.99276e-11 6.69877e-12 3.29644e-11 -2.55073e-11 9.102e-12 5.82383e-12 -6.958e-12 2.66451e-12 5.69041e-11 -1.98238e-11 8.93278e-12 1.18426e-12 2.78165e-11 -3.74927e-12 4.19437e-11 2.33288e-11 2.41582e-11 3.09228e-11 -1.085e-11 1.21822e-11 -7.67755e-12 -4.55722e-11 9.41158e-12 5.09093e-11 -3.83517e-11 1.23318e-11 4.73868e-11 1.91719e-11 2.81891e-11 2.79282e-11 -5.62902e-11 1.3078e-11 6.62264e-11 -2.01093e-11 2.47159e-11 -3.76417e-12 -5.62555e-11 1.34692e-11 6.69766e-11 -4.81425e-11 6.13244e-12 5.33001e-11 6.49425e-11 4.53128e-12 -1.37792e-11 -1.16589e-12 1.95212e-11 -1.50566e-11 -6.37798e-11 1.31024e-11 6.67035e-11 3.28948e-11 -6.6523e-12 2.81704e-11 -2.2376e-11 1.66229e-11 4.00267e-11 -1.29748e-11 2.59677e-11 -9.25523e-12 2.90688e-11 2.68303e-11 2.16076e-11 2.50041e-11 1.36383e-11 2.5219e-11 -3.51024e-11 1.11549e-11 4.63281e-11 -6.67488e-11 1.02699e-11 5.67351e-11 -1.05512e-11 2.53042e-11 -8.56495e-12 -5.78596e-11 1.31715e-11 5.68524e-11 9.54297e-11 3.42405e-11 -4.13236e-11 1.63499e-13 8.4221e-12 -1.42364e-11 4.47579e-12 1.13219e-11 -1.74675e-11 -6.05367e-11 8.98647e-12 4.76658e-11 -4.40862e-11 6.75699e-12 2.93613e-11 -4.31799e-11 6.67636e-12 2.79997e-11 -5.88104e-11 1.4273e-11 6.89553e-11 1.19589e-11 1.86427e-11 -1.62508e-11 1.06174e-10 1.94201e-11 -2.04226e-11 -6.64409e-12 5.52165e-12 -8.98887e-12 -4.72091e-12 6.47581e-12 -8.64018e-12 -3.45204e-11 1.17445e-11 6.53129e-11 3.2507e-11 -3.73507e-12 2.87147e-11 3.37639e-11 -3.22137e-12 3.33797e-11 -6.2685e-11 1.07201e-11 5.95679e-11 -5.62787e-11 1.68412e-11 5.44068e-11 -5.25155e-11 1.74963e-11 4.42873e-11 -5.66731e-11 1.42689e-11 7.08728e-11 -5.23537e-12 4.44954e-12 5.22061e-11 3.21809e-11 1.35841e-11 -2.23424e-11 -2.17681e-11 2.57349e-12 1.73971e-11 6.84256e-11 1.09572e-11 -1.58171e-11 -4.63886e-11 2.09854e-11 3.57128e-11 4.79227e-11 -5.45672e-12 -2.74526e-11 -3.6541e-11 1.45719e-11 6.82424e-11 -4.59257e-11 8.68797e-12 6.26925e-11 3.86645e-12 1.88743e-11 2.82894e-11 7.401e-11 1.40522e-11 -2.6765e-11 1.20472e-11 2.15045e-11 -1.38414e-11 -4.14904e-11 7.37792e-12 3.95853e-11 5.49636e-11 1.58378e-11 -2.32113e-11 -2.67117e-11 1.13055e-11 6.25709e-11 -6.8024e-12 2.444e-11 -5.41934e-12 -7.94351e-12 2.46901e-11 -3.95009e-12 -3.799e-12 9.19663e-13 4.64329e-12 -2.58291e-11 3.94171e-12 2.69603e-11 -4.88314e-11 8.70113e-12 4.74587e-11 2.26634e-11 6.13221e-13 4.26712e-11 4.36757e-12 2.33853e-11 -9.26575e-12 -4.28021e-11 8.48253e-12 4.21743e-11 -1.84093e-11 5.56908e-12 3.96151e-11 3.42534e-11 -2.34861e-12 2.53594e-11 1.40813e-10 2.0329e-11 -2.71437e-11 1.14354e-11 2.23229e-11 -1.19963e-11 -4.8382e-11 8.63032e-12 5.35242e-11 -3.64814e-11 1.92771e-11 3.90636e-11 -4.83537e-11 1.45501e-11 7.49042e-11 -1.47646e-11 2.12356e-11 2.06265e-11 2.93129e-11 -2.58848e-12 6.25234e-12 -4.53947e-11 8.07421e-12 5.86733e-11 3.7262e-11 7.73654e-13 3.26259e-11 -3.01425e-11 -1.31468e-11 5.2406e-11 -2.9898e-11 1.75044e-11 4.79715e-11 2.93135e-11 3.85151e-12 3.34805e-11 -3.35976e-11 -1.60957e-11 5.65361e-11 2.30098e-11 1.90152e-11 2.04662e-11 -4.42409e-11 1.12729e-11 5.99155e-11 1.58353e-10 1.47434e-11 -3.418e-11 -4.21121e-11 1.34897e-11 5.00202e-11 -1.45755e-11 -8.52012e-12 4.00079e-11 -3.90996e-11 5.4976e-12 5.98116e-11 7.35873e-11 4.00257e-11 -2.19511e-11 5.29105e-11 7.79404e-12 -1.07821e-11 -6.85511e-13 1.16216e-11 3.68726e-11 2.17534e-11 -5.73248e-13 2.72143e-11 2.10233e-11 1.01985e-11 1.29974e-11 6.0347e-12 -3.20646e-12 5.19438e-12 2.22583e-11 4.48564e-12 1.87409e-12 2.80336e-11 1.40635e-11 1.5075e-11 1.85146e-11 1.37108e-11 1.34576e-11 1.9652e-11 3.25445e-12 2.93842e-11 7.74136e-12 -6.91284e-12 1.39476e-11 2.79347e-11 1.35606e-11 -2.20229e-12 
</DataArray>
<DataArray type="Float32" Name="Active" NumberOfComponents="1" >
0 0 0 0 0 0 0 0 0 0 0 0 0 0 0 0 0 0 0 0 0 0 0 0 0 0 0 0 0 0 0 0 0 0 0 0 0 0 0 0 0 0 0 0 0 0 0 0 0 0 0 0 0 0 0 0 0 0 0 0 0 0 0 0 0 0 0 0 0 0 0 0 0 0 0 0 0 0 0 0 0 0 0 0 0 0 0 0 0 0 0 0 0 0 0 0 0 0 0 0 0 0 0 0 0 0 0 0 0 0 0 0 0 0 0 0 0 0 0 0 0 0 0 0 0 0 0 0 0 0 0 0 0 0 0 0 0 0 0 0 0 0 0 0 0 0 0 0 0 0 0 0 0 0 0 0 0 0 0 0 0 0 0 0 0 0 0 0 0 0 0 0 0 0 0 0 0 0 0 0 0 0 0 0 0 0 0 0 0 0 0 0 0 0 0 0 0 0 0 0 0 0 0 0 0 0 0 0 0 0 0 0 0 0 0 0 0 0 0 0 0 0 0 0 0 0 0 0 0 0 0 0 0 0 0 0 0 0 0 0 0 0 0 0 0 0 0 0 0 0 0 0 0 0 0 0 0 0 0 0 0 0 0 0 0 0 0 0 0 0 0 0 0 0 0 0 0 0 0 0 0 0 0 0 0 0 0 0 0 0 0 0 0 0 0 0 0 0 0 0 0 0 
</DataArray>
</PointData>
<CellData /> 
<Cells>
<DataArray type="Int32" Name="connectivity" format="ascii">
0 1 2 3 4 5 6 7 8 9 10 11 12 13 14 15 16 17 18 19 20 21 22 23 24 25 26 27 28 29 30 31 32 33 34 35 36 37 38 39 40 41 42 43 44 45 46 47 48 49 50 51 52 53 54 55 56 57 58 59 60 61 62 63 64 65 66 67 68 69 70 71 72 73 74 75 76 77 78 79 80 81 82 83 84 85 86 87 88 89 90 91 92 93 94 95 96 97 98 99 100 101 102 103 104 105 106 107 108 109 110 111 112 113 114 115 116 117 118 119 120 121 122 123 124 125 126 127 128 129 130 131 132 133 134 135 136 137 138 139 140 141 142 143 144 145 146 147 148 149 150 151 152 153 154 155 156 157 158 159 160 161 162 163 164 165 166 167 168 169 170 171 172 173 174 175 176 177 178 179 180 181 182 183 184 185 186 187 188 189 190 191 192 193 194 195 196 197 198 199 200 201 202 203 204 205 206 207 208 209 210 211 212 213 214 215 216 217 218 219 220 221 222 223 224 225 226 227 228 229 230 231 232 233 234 235 236 237 238 239 240 241 242 243 244 245 246 247 248 249 250 251 252 253 254 255 256 257 258 259 260 261 262 263 264 265 266 267 268 269 270 271 272 273 274 275 276 277 278 279 280 281 282 283 284 285 286 287 288 289 290 291 292 293 294 295 296 297 298 299 300 301 </DataArray>
<DataArray type="Int32" Name="offsets" format="ascii">
1 2 3 4 5 6 7 8 9 10 11 12 13 14 15 16 17 18 19 20 21 22 23 24 25 26 27 28 29 30 31 32 33 34 35 36 37 38 39 40 41 42 43 44 45 46 47 48 49 50 51 52 53 54 55 56 57 58 59 60 61 62 63 64 65 66 67 68 69 70 71 72 73 74 75 76 77 78 79 80 81 82 83 84 85 86 87 88 89 90 91 92 93 94 95 96 97 98 99 100 101 102 103 104 105 106 107 108 109 110 111 112 113 114 115 116 117 118 119 120 121 122 123 124 125 126 127 128 129 130 131 132 133 134 135 136 137 138 139 140 141 142 143 144 145 146 147 148 149 150 151 152 153 154 155 156 157 158 159 160 161 162 163 164 165 166 167 168 169 170 171 172 173 174 175 176 177 178 179 180 181 182 183 184 185 186 187 188 189 190 191 192 193 194 195 196 197 198 199 200 201 202 203 204 205 206 207 208 209 210 211 212 213 214 215 216 217 218 219 220 221 222 223 224 225 226 227 228 229 230 231 232 233 234 235 236 237 238 239 240 241 242 243 244 245 246 247 248 249 250 251 252 253 254 255 256 257 258 259 260 261 262 263 264 265 266 267 268 269 270 271 272 273 274 275 276 277 278 279 280 281 282 283 284 285 286 287 288 289 290 291 292 293 294 295 296 297 298 299 300 301 302 </DataArray>
<DataArray type="UInt8" Name="types" format="ascii">