<?xml version="1.0"?>
<VTKFile type="UnstructuredGrid" version="0.1" byte_order="LittleEndian">
<UnstructuredGrid>
<Piece NumberOfPoints="115" NumberOfCells="115">
<PointData Vectors="Particles">
<DataArray type="Float32" Name="Mass" NumberOfComponents="1" >
1.41117e-08 1.41117e-08 1.41117e-08 1.41117e-08 1.41117e-08 1.41117e-08 1.41117e-08 1.41117e-08 1.41117e-08 1.41117e-08 1.41117e-08 1.41117e-08 1.41117e-08 1.41117e-08 1.41117e-08 1.41117e-08 1.41117e-08 1.41117e-08 1.41117e-08 1.41117e-08 1.41117e-08 1.41117e-08 1.41117e-08 1.41117e-08 1.41117e-08 1.41117e-08 1.41117e-08 1.41117e-08 1.41117e-08 1.41117e-08 1.41117e-08 1.41117e-08 1.41117e-08 1.41117e-08 1.41117e-08 1.41117e-08 1.41117e-08 1.41117e-08 1.41117e-08 1.41117e-08 1.41117e-08 1.41117e-08 1.41117e-08 1.41117e-08 1.41117e-08 1.41117e-08 1.41117e-08 1.41117e-08 1.41117e-08 1.41117e-08 1.41117e-08 1.41117e-08 1.41117e-08 1.41117e-08 1.41117e-08 1.41117e-08 1.41117e-08 1.41117e-08 1.41117e-08 1.41117e-08 1.41117e-08 1.41117e-08 1.41117e-08 1.41117e-08 1.41117e-08 1.41117e-08 1.41117e-08 1.41117e-08 1.41117e-08 1.41117e-08 1.41117e-08 1.41117e-08 1.41117e-08 1.41117e-08 1.41117e-08 1.41117e-08 1.41117e-08 1.41117e-08 1.41117e-08 1.41117e-08 1.41117e-08 1.41117e-08 1.41117e-08 1.41117e-08 1.41117e-08 1.41117e-08 1.41117e-08 1.41117e-08 1.41117e-08 1.41117e-08 1.41117e-08 1.41117e-08 1.41117e-08 1.41117e-08 1.41117e-08 1.41117e-08 1.41117e-08 1.41117e-08 1.41117e-08 1.41117e-08 1.41117e-08 1.41117e-08 1.41117e-08 1.41117e-08 1.41117e-08 1.41117e-08 1.41117e-08 1.41117e-08 1.41117e-08 1.41117e-08 1.41117e-08 1.41117e-08 1.41117e-08 1.41117e-08 1.41117e-08 
</DataArray>
<DataArray type="Float32" Name="Radius" NumberOfComponents="1" >
0.00015 0.00015 0.00015 0.00015 0.00015 0.00015 0.00015 0.00015 0.00015 0.00015 0.00015 0.00015 0.00015 0.00015 0.00015 0.00015 0.00015 0.00015 0.00015 0.00015 0.00015 0.00015 0.00015 0.00015 0.00015 0.00015 0.00015 0.00015 0.00015 0.00015 0.00015 0.00015 0.00015 0.00015 0.00015 0.00015 0.00015 0.00015 0.00015 0.00015 0.00015 0.00015 0.00015 0.00015 0.00015 0.00015 0.00015 0.00015 0.00015 0.00015 0.00015 0.00015 0.00015 0.00015 0.00015 0.00015 0.00015 0.00015 0.00015 0.00015 0.00015 0.00015 0.00015 0.00015 0.00015 0.00015 0.00015 0.00015 0.00015 0.00015 0.00015 0.00015 0.00015 0.00015 0.00015 0.00015 0.00015 0.00015 0.00015 0.00015 0.00015 0.00015 0.00015 0.00015 0.00015 0.00015 0.00015 0.00015 0.00015 0.00015 0.00015 0.00015 0.00015 0.00015 0.00015 0.00015 0.00015 0.00015 0.00015 0.00015 0.00015 0.00015 0.00015 0.00015 0.00015 0.00015 0.00015 0.00015 0.00015 0.00015 0.00015 0.00015 0.00015 0.00015 0.00015 
</DataArray>
<DataArray type="Float32" Name="Velocity" NumberOfComponents="3" >
-2.96693e-05 -9.88203e-05 -0.0306097 6.27475e-05 4.71024e-08 -0.0278035 7.93046e-05 -5.11423e-05 -0.0254814 8.39366e-05 -2.97443e-05 -0.031325 7.20602e-05 -7.3186e-05 -0.0290299 7.0234e-05 -7.96781e-05 -0.0284187 0.000173707 3.48177e-05 -0.0345275 5.56005e-05 -7.83811e-05 -0.0298065 0.000100886 3.75273e-05 -0.0294442 6.18766e-05 -8.89699e-05 -0.0318735 8.93261e-05 -5.04387e-05 -0.026258 6.69674e-05 -2.46833e-05 -0.030104 6.59607e-05 -9.52687e-05 -0.0266527 0.000122522 1.6159e-06 -0.0260209 8.28022e-05 -6.2606e-05 -0.0324907 -6.50601e-06 -0.00010688 -0.0284655 7.58477e-05 -6.6845e-05 -0.0295409 0.000101741 -2.30289e-05 -0.031976 2.99335e-05 -9.34977e-05 -0.0300854 7.70881e-05 -2.81081e-05 -0.0265985 -2.27418e-05 -0.000107171 -0.0285031 8.4772e-05 -4.24354e-05 -0.0331046 6.33968e-05 -8.2356e-05 -0.0335645 2.69546e-06 -8.77674e-05 -0.0312003 0.000172773 3.57036e-05 -0.0340564 6.87584e-06 -0.000105496 -0.02519 -5.24453e-05 -9.02356e-05 -0.0250362 9.96831e-05 -2.70102e-05 -0.0318124 -1.16192e-05 -0.000100707 -0.0297211 6.07617e-05 -4.1586e-05 -0.0275397 7.26922e-06 -7.7011e-05 -0.033626 6.12088e-05 -9.49818e-05 -0.0271388 0.000129726 -1.51091e-06 -0.0338214 -3.14666e-05 -9.23937e-05 -0.0315971 9.15676e-05 -3.56047e-05 -0.0249931 2.92797e-05 -8.94349e-05 -0.0312927 -8.13528e-06 -8.46792e-05 -0.0255191 -1.1422e-05 -0.000100419 -0.0297436 9.8617e-05 -5.64272e-05 -0.0339522 4.96224e-05 -8.14141e-05 -0.0243686 8.39335e-05 -5.12186e-05 -0.0262595 0.000100273 -1.76532e-05 -0.0330371 -5.52406e-05 -5.2797e-05 -0.0345837 6.40423e-05 -7.72099e-05 -0.03428 4.27394e-05 -0.000114444 -0.0259442 6.39767e-05 -8.92133e-05 -0.0278208 6.09541e-05 -4.29697e-05 -0.0267175 -2.80092e-05 -8.68164e-05 -0.0319882 6.91851e-05 -7.55171e-05 -0.032975 0.00010396 -4.17274e-05 -0.0351009 -2.45253e-05 -0.000109171 -0.0273777 0.000123023 5.37001e-06 -0.0253702 4.0466e-05 -0.000116135 -0.0266004 7.27739e-05 -0.000102175 -0.0247784 9.48347e-05 -1.51388e-05 -0.0316904 5.2667e-05 -0.000110149 -0.0297389 4.81457e-05 -9.67456e-05 -0.024528 0.000102437 -5.1502e-05 -0.034517 9.00384e-05 -5.00962e-05 -0.0263765 0.0001111 -1.32944e-05 -0.0332756 -1.12927e-05 -9.47281e-05 -0.0264649 3.62134e-05 -8.97377e-05 -0.0314624 3.01117e-05 -9.70588e-05 -0.0295053 9.17587e-05 3.46029e-05 -0.0300575 -3.54584e-05 -0.000102221 -0.0296057 5.28505e-05 -0.000114966 -0.0288008 7.18399e-05 5.5979e-06 -0.030431 0.000108821 3.73051e-06 -0.024453 7.79176e-05 -5.68627e-05 -0.0303063 0.000102851 6.02656e-06 -0.0263419 3.11026e-05 -9.07943e-05 -0.0308672 6.93632e-05 -0.000100997 -0.0260014 7.00457e-05 -4.19701e-05 -0.0294893 -5.13449e-05 -8.50683e-05 -0.0307918 5.18211e-05 -0.000114009 -0.0274471 6.27638e-05 -4.43993e-05 -0.0263192 0.000116136 3.64969e-06 -0.032747 -3.85712e-05 -9.51106e-05 -0.0307127 3.1298e-05 -0.000115805 -0.025534 -6.02297e-06 -0.000107348 -0.028157 0.000147805 4.446e-05 -0.0328626 -5.33555e-05 -0.00010034 -0.0260683 2.33319e-05 -9.47658e-05 -0.0298727 8.05979e-05 2.13897e-05 -0.030809 6.68898e-05 -7.00867e-05 -0.0300689 2.89687e-05 -9.54977e-05 -0.02972 0.000147929 6.58798e-06 -0.0347075 6.06427e-05 -9.70468e-05 -0.0264306 9.5536e-05 -1.09273e-05 -0.0243661 7.3057e-05 -4.86766e-05 -0.0260094 -5.44225e-05 -9.83511e-05 -0.0276556 4.88727e-05 -0.00010707 -0.025173 9.96495e-07 -0.00010462 -0.0262778 9.53473e-05 -3.45146e-05 -0.03461 9.38495e-05 -4.71706e-05 -0.0259924 -2.82316e-05 -0.000110102 -0.0264531 -2.21855e-05 -8.90827e-05 -0.0316173 0.00016888 -9.43256e-06 -0.0243915 5.60506e-05 -8.68568e-05 -0.0328524 6.51011e-05 -7.37592e-05 -0.0316786 -3.54846e-05 -0.000113357 -0.026302 7.70474e-05 -3.40346e-05 -0.0304257 6.05142e-05 -8.37941e-05 -0.0309159 -7.20518e-06 -8.40386e-05 -0.032545 -5.69275e-05 -0.000110689 -0.0252108 -9.87182e-06 -8.72503e-05 -0.0319559 9.45171e-05 7.79397e-06 -0.0269195 0.00012875 3.31784e-06 -0.0260619 7.95728e-05 -5.34856e-05 -0.0313099 9.59166e-05 -5.84935e-05 -0.0346604 -5.931e-05 -9.5666e-05 -0.0275977 -3.46979e-05 -8.80271e-05 -0.0321828 5.12089e-05 -9.37145e-05 -0.0316829 6.30509e-05 -9.77612e-05 -0.0259138 6.55053e-05 -8.10777e-05 -0.0327074 
</DataArray>
<DataArray type="Float32" Name="Force" NumberOfComponents="3" >
9.01043e-13 6.38122e-12 1.76899e-11 -1.08103e-11 1.49834e-12 -2.24682e-12 -5.95055e-12 3.74707e-12 6.86166e-12 -7.36923e-13 7.8184e-12 5.20669e-12 -3.48564e-13 7.80056e-12 9.0841e-12 -7.60366e-13 8.38829e-12 8.57716e-12 4.05481e-12 -1.72058e-12 7.53974e-12 -1.54014e-13 7.06751e-12 1.31378e-11 1.03102e-12 3.58441e-12 2.43867e-12 9.103e-13 8.56458e-12 1.94239e-11 -4.37669e-12 2.04599e-12 2.99358e-12 4.8436e-13 3.67487e-12 5.53834e-13 -7.75156e-13 5.03827e-12 5.67842e-12 -1.55547e-11 4.85795e-13 4.17668e-12 4.30057e-12 4.98564e-12 1.29816e-11 5.75428e-13 5.18744e-12 1.7929e-11 3.86208e-13 7.71406e-12 9.51374e-12 3.83487e-12 7.5715e-12 4.15927e-12 1.06356e-12 7.37789e-12 1.38524e-11 -9.57278e-12 -6.16049e-13 3.88981e-12 2.29885e-12 4.51339e-12 1.35019e-11 -1.08548e-13 7.91476e-12 5.63286e-12 2.30039e-12 8.72701e-12 2.1329e-11 1.58286e-12 7.69589e-12 1.56766e-11 3.73252e-12 -2.84188e-12 9.3301e-12 1.88971e-12 1.95334e-12 1.53287e-11 4.23243e-12 -1.19617e-13 7.43889e-12 1.44957e-12 8.23171e-12 4.94805e-12 1.21383e-12 7.88315e-12 1.63356e-11 -1.50896e-12 2.28763e-12 5.11282e-12 3.3068e-12 9.10905e-12 2.24407e-11 -3.25293e-12 5.91946e-12 1.44811e-11 4.51363e-12 6.85192e-12 7.75819e-12 7.82551e-13 7.26738e-12 1.99642e-11 -3.00409e-12 -1.45613e-12 5.79949e-12 1.18097e-12 6.40718e-12 1.56997e-11 2.77038e-12 -1.33247e-12 1.05962e-11 1.21399e-12 7.89684e-12 1.63404e-11 3.44185e-12 6.8155e-12 1.53127e-11 -3.81204e-12 1.29581e-13 1.43938e-11 -4.81713e-12 2.99062e-12 4.57305e-12 3.39218e-12 6.59821e-12 2.97534e-12 -1.00742e-12 1.09581e-11 1.67611e-11 2.94454e-12 9.82678e-12 2.17973e-11 7.59664e-13 2.01283e-12 1.54721e-11 -3.62598e-12 8.21578e-12 1.3705e-11 -3.53845e-12 3.34318e-12 4.75785e-12 4.22887e-13 7.76439e-12 2.0299e-11 3.08582e-12 7.34338e-12 1.90003e-11 3.48779e-12 8.696e-12 1.50628e-11 4.42948e-12 3.80897e-12 1.39575e-11 -1.20039e-11 7.14666e-13 3.4309e-12 5.25158e-13 3.4045e-12 1.65463e-11 -2.48711e-12 -8.50693e-13 8.72396e-12 5.93344e-12 5.11113e-12 2.43666e-12 1.26484e-12 7.17906e-12 1.51461e-11 5.52153e-13 -1.52133e-12 1.56254e-11 2.87789e-12 8.09041e-12 1.61486e-11 -4.41748e-12 1.27549e-12 2.5965e-12 3.27638e-12 7.10205e-12 5.60109e-12 2.35168e-12 -1.83122e-12 1.28761e-11 1.0685e-12 5.99073e-12 1.61248e-11 7.63952e-13 8.12329e-12 1.47655e-11 1.99031e-12 2.47387e-12 2.20591e-12 1.56786e-12 5.51937e-12 1.46527e-11 7.08213e-13 5.70231e-12 1.63743e-11 2.26637e-12 2.79905e-12 1.96698e-12 -5.68528e-12 1.59521e-13 3.15902e-12 -1.21808e-12 6.60518e-12 9.14974e-12 -1.51047e-11 1.31009e-12 2.99827e-13 1.18537e-12 6.60522e-12 1.44707e-11 -3.2185e-12 4.75636e-12 1.37051e-11 -2.50913e-12 3.29978e-12 -4.20123e-13 2.93581e-12 5.6983e-12 1.49188e-11 -1.95781e-14 2.18884e-12 1.6462e-11 -4.54753e-12 3.63744e-12 5.34506e-12 7.01065e-12 3.8143e-12 4.43609e-12 2.34513e-12 6.34838e-12 1.73135e-11 1.59868e-12 2.64293e-12 1.5904e-11 2.49072e-13 3.66593e-12 1.84786e-11 5.90347e-12 -2.03657e-12 7.24443e-12 1.79592e-12 1.73327e-12 9.03557e-12 1.09397e-12 7.88975e-12 1.45646e-11 4.24641e-12 2.07708e-12 3.2e-12 -7.4595e-13 6.88018e-12 1.06563e-11 9.12827e-13 7.84868e-12 1.4415e-11 5.82283e-12 4.94017e-12 8.91203e-12 -2.47363e-12 4.17098e-12 1.45526e-11 -3.63801e-12 -4.54319e-13 4.81639e-12 -5.34553e-12 3.59963e-12 5.84724e-12 3.51763e-12 4.451e-12 1.15629e-11 5.81497e-13 -9.2525e-15 1.50175e-11 7.32816e-13 1.89612e-12 1.85258e-11 2.76889e-12 9.47409e-12 9.89544e-12 -4.62749e-12 -3.10003e-13 4.09123e-12 4.733e-12 3.16601e-12 1.38674e-11 3.96259e-13 7.61292e-12 1.83993e-11 -1.0671e-11 1.12751e-12 5.27602e-12 1.72936e-12 7.95148e-12 2.0958e-11 2.93302e-12 6.53074e-12 1.5858e-11 5.01753e-12 3.91754e-12 1.49458e-11 1.35194e-12 4.95618e-12 5.76704e-13 1.82218e-12 7.91877e-12 1.49065e-11 2.07421e-12 8.58232e-12 1.95281e-11 4.09619e-12 1.12599e-12 8.45793e-12 1.16291e-12 7.82642e-12 1.81912e-11 -1.47192e-11 1.48216e-12 -1.30759e-12 -1.28824e-11 9.85419e-13 5.48819e-12 -2.44017e-12 5.67351e-12 8.50378e-12 3.79243e-12 7.50445e-12 1.65222e-11 2.6384e-12 3.42106e-12 1.04495e-11 7.62847e-13 7.39786e-12 2.01247e-11 6.1842e-13 7.60964e-12 1.83737e-11 -2.99938e-12 4.08823e-12 1.41913e-11 2.05447e-12 7.85446e-12 2.02744e-11 
</DataArray>
<DataArray type="Float32" Name="Active" NumberOfComponents="1" >
1 1 1 1 1 1 1 1 1 1 1 1 1 1 1 1 1 1 1 1 1 1 1 1 1 1 1 1 1 1 1 1 1 1 1 1 1 1 1 1 1 1 1 1 1 1 1 1 1 1 1 1 1 1 1 1 1 1 1 1 1 1 1 1 1 1 1 1 1 1 1 1 1 1 1 1 1 1 1 1 1 1 1 1 1 1 1 1 1 1 1 1 1 1 1 1 1 1 1 1 1 1 1 1 1 1 1 1 1 1 1 1 1 1 1 
</DataArray>
</PointData>
<CellData /> 
<Cells>
<DataArray type="Int32" Name="connectivity" format="ascii">
0 1 2 3 4 5 6 7 8 9 10 11 12 13 14 15 16 17 18 19 20 21 22 23 24 25 26 27 28 29 30 31 32 33 34 35 36 37 38 39 40 41 42 43 44 45 46 47 48 49 50 51 52 53 54 55 56 57 58 59 60 61 62 63 64 65 66 67 68 69 70 71 72 73 74 75 76 77 78 79 80 81 82 83 84 85 86 87 88 89 90 91 92 93 94 95 96 97 98 99 100 101 102 103 104 105 106 107 108 109 110 111 112 113 114 </DataArray>
<DataArray type="Int32" Name="offsets" format="ascii">
1 2 3 4 5 6 7 8 9 10 11 12 13 14 15 16 17 18 19 20 21 22 23 24 25 26 27 28 29 30 31 32 33 34 35 36 37 38 39 40 41 42 43 44 45 46 47 48 49 50 51 52 53 54 55 56 57 58 59 60 61 62 63 64 65 66 67 68 69 70 71 72 73 74 75 76 77 78 79 80 81 82 83 84 85 86 87 88 89 90 91 92 93 94 95 96 97 98 99 100 101 102 103 104 105 106 107 108 109 110 111 112 113 114 115 </DataArray>
<DataArray type="UInt8" Name="types" format="ascii">
1 1 1 1 1 1 1 1 1 1 1 1 1 1 1 1 1 1 1 1 1 1 1 1 1 1 1 1 1 1 1 1 1 1 1 1 1 1 1 1 1 1 1 1 1 1 1 1 1 1 1 1 1 1 1 1 1 1 1 1 1 1 1 1 1 1 1 1 1 1 1 1 1 1 1 1 1 1 1 1 1 1 1 1 1 1 1 1 1 1 1 1 1 1 1 1 1 1 1 1 1 1 1 1 1 1 1 1 1 1 1 1 1 1 1 </DataArray>
</Cells>
<Points>
<DataArray type="Float32" Name="Position" NumberOfComponents="3" >
-0.00238298 -0.00644012 0.048865 0.00701597 -0.0012466 0.0514758 0.00607916 -0.00423853 0.0533373 0.0054052 -0.0040746 0.0485462 0.00428326 -0.00557316 0.0504109 0.00426798 -0.00567272 0.050924 0.00637315 0.00017977 0.0458614 0.00302173 -0.00626165 0.0495793 0.00696188 0.000341541 0.0499942 0.00159822 -0.00652084 0.0477707 0.0062953 -0.0037436 0.0527496 0.00666816 -0.00176764 0.0496056 0.0045055 -0.00575068 0.0524144 0.00733299 0.000162915 0.0528691 0.00343597 -0.00568173 0.0474675 -0.00114871 -0.00703203 0.0506391 0.0044849 -0.00535173 0.0500094 0.00620885 -0.00240705 0.0480365 0.000157561 -0.00693994 0.0493206 0.00692304 -0.00221037 0.0524634 -0.00257195 -0.0066267 0.0506558 0.00446575 -0.00480447 0.0471202 0.00123529 -0.00640186 0.0463527 -0.000726149 -0.00677247 0.0483552 0.00640872 0.000531518 0.0462037 -0.000434159 -0.00746839 0.0533092 -0.00445303 -0.00602877 0.0536241 0.00584016 -0.00326707 0.0481181 -0.00143379 -0.0068214 0.0496074 0.00562102 -0.00449043 0.0516815 -0.000813936 -0.0064676 0.0463112 0.00329081 -0.0064675 0.0517964 0.00603878 -0.00223103 0.0464741 -0.00230235 -0.00634885 0.0480233 0.00691471 -0.00277623 0.0538367 4.05158e-05 -0.00678965 0.0482925 -0.00166024 -0.00726745 0.0530776 -0.00142178 -0.00682107 0.0495856 0.00349946 -0.00542686 0.0462166 0.00249557 -0.00715132 0.0540691 0.00613067 -0.00402582 0.0527092 0.00529113 -0.00387485 0.0471855 -0.00341784 -0.00538556 0.0456194 0.00109012 -0.00633179 0.0457552 0.000997612 -0.00732864 0.0527355 0.00365013 -0.00618852 0.0512758 0.00573745 -0.00448065 0.0523422 -0.00190555 -0.00644315 0.0476799 0.00200743 -0.00626698 0.0469007 0.00369748 -0.00511479 0.0453112 -0.0026794 -0.00672373 0.0516126 0.00735294 -0.000842009 0.0534771 0.000828763 -0.00727757 0.0522073 0.00419915 -0.0062205 0.0538834 0.00648099 -0.00173859 0.0483206 0.00116291 -0.00687685 0.0496001 0.0016186 -0.00736897 0.05387 0.00354067 -0.00531572 0.0457299 0.00636026 -0.00359718 0.0526611 0.00556915 -0.00340448 0.0469623 -0.00196538 -0.00709096 0.0523625 0.000230578 -0.00677608 0.0481535 0.000206788 -0.00701177 0.0498264 0.0068831 -0.000122961 0.0495604 -0.00307179 -0.00628885 0.0496988 0.00152933 -0.00691308 0.0503666 0.00675064 -0.00112345 0.0493123 0.00731669 -0.00162654 0.0542897 0.00465529 -0.00508559 0.0493787 0.00726513 -0.00059093 0.0526568 0.000127261 -0.00684449 0.048663 0.00364275 -0.0064167 0.0527396 0.0066095 -0.00218873 0.0501228 -0.00395698 -0.005599 0.0488573 0.00173224 -0.00701845 0.0515155 0.00579665 -0.00447205 0.0526728 0.00642497 -0.00136378 0.047432 -0.00313449 -0.00611752 0.0488462 0.000580174 -0.00741602 0.0530939 -0.00116008 -0.00706736 0.0509009 0.00658428 0.00016084 0.0472793 -0.00423657 -0.0060562 0.0527746 -2.51068e-05 -0.00695931 0.0494985 0.00677166 -0.000750996 0.0489911 0.00370113 -0.0058448 0.0494722 0.000156704 -0.00698405 0.0496326 0.00605856 -0.00188115 0.0457325 0.00319817 -0.00659576 0.0523814 0.0071789 -0.00218735 0.054345 0.00597298 -0.0042888 0.0528995 -0.00410638 -0.00593422 0.0514415 0.00140471 -0.00735525 0.053326 -0.000754817 -0.00734597 0.0523576 0.00410879 -0.00485434 0.0458323 0.00659701 -0.00325094 0.0529972 -0.00271027 -0.00682455 0.0524114 -0.00173222 -0.00653045 0.0480227 0.00750596 0.000354493 0.0541893 0.000982036 -0.00652059 0.0469512 0.00272316 -0.00616488 0.0480471 -0.00298265 -0.00673362 0.0525055 0.00652777 -0.00209481 0.049349 0.00236582 -0.00641656 0.0486314 -0.00117262 -0.00652913 0.047227 -0.00377214 -0.00644925 0.053485 -0.00125799 -0.00658423 0.0477243 0.00721732 -0.000258424 0.052158 0.00730716 0.000560054 0.0527801 0.00454347 -0.00503989 0.0485779 0.0029201 -0.00564094 0.0456212 -0.00440366 -0.00570231 0.0514829 -0.00249964 -0.00620417 0.0475798 0.000887098 -0.00667518 0.0479482 0.00329541 -0.00661542 0.0528121 0.00173793 -0.00637866 0.0470784 
</DataArray>
</Points>
</Piece>
</UnstructuredGrid>
</VTKFile>
