<?xml version="1.0"?>
<VTKFile type="UnstructuredGrid" version="0.1" byte_order="LittleEndian">
<UnstructuredGrid>
<Piece NumberOfPoints="55" NumberOfCells="55">
<PointData Vectors="Particles">
<DataArray type="Float32" Name="Mass" NumberOfComponents="1" >
1.41117e-08 1.41117e-08 1.41117e-08 1.41117e-08 1.41117e-08 1.41117e-08 1.41117e-08 1.41117e-08 1.41117e-08 1.41117e-08 1.41117e-08 1.41117e-08 1.41117e-08 1.41117e-08 1.41117e-08 1.41117e-08 1.41117e-08 1.41117e-08 1.41117e-08 1.41117e-08 1.41117e-08 1.41117e-08 1.41117e-08 1.41117e-08 1.41117e-08 1.41117e-08 1.41117e-08 1.41117e-08 1.41117e-08 1.41117e-08 1.41117e-08 1.41117e-08 1.41117e-08 1.41117e-08 1.41117e-08 1.41117e-08 1.41117e-08 1.41117e-08 1.41117e-08 1.41117e-08 1.41117e-08 1.41117e-08 1.41117e-08 1.41117e-08 1.41117e-08 1.41117e-08 1.41117e-08 1.41117e-08 1.41117e-08 1.41117e-08 1.41117e-08 1.41117e-08 1.41117e-08 1.41117e-08 1.41117e-08 
</DataArray>
<DataArray type="Float32" Name="Radius" NumberOfComponents="1" >
0.00015 0.00015 0.00015 0.00015 0.00015 0.00015 0.00015 0.00015 0.00015 0.00015 0.00015 0.00015 0.00015 0.00015 0.00015 0.00015 0.00015 0.00015 0.00015 0.00015 0.00015 0.00015 0.00015 0.00015 0.00015 0.00015 0.00015 0.00015 0.00015 0.00015 0.00015 0.00015 0.00015 0.00015 0.00015 0.00015 0.00015 0.00015 0.00015 0.00015 0.00015 0.00015 0.00015 0.00015 0.00015 0.00015 0.00015 0.00015 0.00015 0.00015 0.00015 0.00015 0.00015 0.00015 0.00015 
</DataArray>
<DataArray type="Float32" Name="Velocity" NumberOfComponents="3" >
0.0132871 2.73613e-05 -0.025245 0.0143622 -3.38855e-05 -0.0275408 0.0147552 -5.06997e-05 -0.0283331 0.0133263 5.39898e-05 -0.0254318 0.0155093 -0.000103691 -0.029881 0.015622 -0.000114673 -0.0300918 0.017494 -0.00011407 -0.0333008 0.0118092 0.000155817 -0.0224426 0.0167339 -0.000202771 -0.0318224 0.0173699 -0.000224967 -0.0326991 0.019116 -0.000131418 -0.0355048 0.019557 -0.00013134 -0.0360724 0.0179517 -0.000269171 -0.0331444 0.0171499 -0.000314939 -0.0317701 0.0168027 -0.000320229 -0.0310744 0.0139263 -0.000397831 -0.0262695 0.019366 -0.000172068 -0.03551 0.0187003 -0.000222618 -0.0342495 0.0192188 -0.000202517 -0.0350176 0.0208607 -0.000118792 -0.038084 0.00818542 -4.023e-05 -0.0157768 0.0207571 -0.000145725 -0.0378352 0.015651 -0.000306687 -0.0286476 0.0052458 9.12235e-06 -0.00849681 0.0105131 -0.000478991 -0.0201068 0.0154787 -0.000308681 -0.028308 0.0110744 -0.000500358 -0.0211131 0.0116747 -0.000458645 -0.0220962 0.0206619 -0.000202426 -0.0373472 0.00987687 -0.000547825 -0.0191066 0.0155195 -0.000330184 -0.0281603 0.00480794 -0.000197015 -0.00960903 0.0129069 -0.000375736 -0.023844 0.013969 -0.00037704 -0.0255316 0.0191083 -0.000284132 -0.0341791 0.0159681 -0.000119792 -0.0275044 0.0120378 -0.000296724 -0.0217305 0.01675 -0.000324763 -0.0300596 0.0179139 -0.000314068 -0.0319276 0.0188687 -0.000300335 -0.0335937 0.01758 -0.000223799 -0.0306396 0.00391668 -0.000106766 -0.00744897 0.0172427 -0.000137567 -0.0296825 0.0045096 -9.57406e-05 -0.00832126 0.0208244 -0.000212001 -0.0366504 0.0214112 -0.000167781 -0.0379563 0.0157767 -3.94097e-05 -0.0267617 0.0175164 -0.000111765 -0.0299246 0.017668 -0.000110616 -0.0301314 0.0187034 -0.000165591 -0.0320915 0.0210004 -0.00017765 -0.0374204 0.00818714 1.90837e-05 -0.0140491 0.0105715 0.000113007 -0.0176394 0.0202788 -0.000254235 -0.0361838 0.0201153 -0.000273033 -0.035794 
</DataArray>
<DataArray type="Float32" Name="Force" NumberOfComponents="3" >
9.05424e-11 3.39849e-11 6.34993e-11 5.28489e-11 5.74885e-11 5.2654e-11 5.25581e-11 6.07399e-11 4.82747e-11 8.10071e-11 4.69812e-11 4.70647e-11 1.08553e-11 4.96336e-11 4.35713e-11 2.53204e-12 4.59983e-11 4.44068e-11 -4.57275e-11 1.43212e-11 5.46047e-11 1.24259e-10 3.6623e-11 2.14368e-11 -3.60465e-11 1.41575e-11 5.41679e-11 -4.58697e-11 -2.86964e-12 5.45868e-11 -5.2533e-11 3.08825e-12 5.71717e-11 -3.75504e-11 8.9555e-12 6.37574e-11 -3.98878e-11 4.02177e-12 7.14158e-11 -3.47237e-11 1.02027e-12 6.93952e-11 -3.20419e-11 3.22137e-13 7.093e-11 2.27975e-11 1.4182e-11 5.46645e-11 -2.25756e-11 1.61784e-11 6.94243e-11 -2.62338e-11 1.55323e-11 7.08002e-11 -1.91519e-11 2.30615e-11 6.23426e-11 -2.93674e-11 1.34758e-11 5.01726e-11 1.62197e-10 2.16932e-11 -5.44367e-11 -2.84471e-11 1.53543e-11 5.09842e-11 -1.75148e-11 2.00502e-11 6.35142e-11 1.38772e-10 1.14497e-11 1.50212e-10 9.41133e-11 2.47849e-11 2.926e-11 -1.46251e-11 2.34731e-11 6.16559e-11 5.80466e-11 2.06029e-11 2.72759e-11 3.47578e-11 1.3927e-11 2.9451e-11 -3.82386e-11 1.4461e-11 3.78079e-11 6.44213e-11 2.02336e-11 1.45929e-11 -3.39869e-11 2.47218e-11 5.39345e-11 6.18311e-11 -3.18521e-12 -1.97266e-11 -9.92403e-11 4.64261e-12 -9.55419e-12 -9.22948e-11 2.48064e-12 2.09867e-11 -5.82425e-11 1.64477e-11 4.20687e-11 -5.45865e-11 -2.24518e-11 -3.41592e-12 -9.35609e-11 -4.21996e-11 -7.22948e-13 -6.10038e-11 1.8115e-11 4.86463e-11 -7.27312e-11 1.17927e-11 4.64777e-11 -5.96103e-11 1.41506e-11 4.21562e-11 -5.1769e-11 -2.86623e-11 6.71082e-13 -2.7626e-11 -5.54243e-12 -8.03807e-12 -3.78017e-11 -1.84465e-11 -1.89955e-11 -1.85544e-11 4.27161e-12 6.65835e-12 2.95715e-11 -5.14044e-12 -6.25729e-11 4.50833e-11 1.91898e-13 -6.84295e-11 -2.92303e-11 -1.68864e-11 -4.66235e-12 -1.35127e-11 -1.13517e-11 -2.47757e-11 -6.49365e-13 -9.75694e-12 -3.52645e-11 1.44118e-11 -5.2989e-12 -4.76866e-11 1.02856e-10 4.16956e-12 -1.11161e-10 -3.3396e-11 -1.41159e-11 2.62569e-11 -3.66089e-11 -1.37368e-11 2.4951e-11 1.3092e-10 1.0041e-11 -1.2999e-10 1.27673e-10 1.12303e-11 -1.28348e-10 
</DataArray>
<DataArray type="Float32" Name="Active" NumberOfComponents="1" >
0 0 0 0 0 0 0 0 0 0 0 0 0 0 0 0 0 0 0 0 0 0 0 0 0 0 0 0 0 1 0 1 1 1 0 1 1 0 1 0 1 1 1 1 1 1 1 1 1 1 1 1 1 1 1 
</DataArray>
</PointData>
<CellData /> 
<Cells>
<DataArray type="Int32" Name="connectivity" format="ascii">
0 1 2 3 4 5 6 7 8 9 10 11 12 13 14 15 16 17 18 19 20 21 22 23 24 25 26 27 28 29 30 31 32 33 34 35 36 37 38 39 40 41 42 43 44 45 46 47 48 49 50 51 52 53 54 </DataArray>
<DataArray type="Int32" Name="offsets" format="ascii">
1 2 3 4 5 6 7 8 9 10 11 12 13 14 15 16 17 18 19 20 21 22 23 24 25 26 27 28 29 30 31 32 33 34 35 36 37 38 39 40 41 42 43 44 45 46 47 48 49 50 51 52 53 54 55 </DataArray>
<DataArray type="UInt8" Name="types" format="ascii">
1 1 1 1 1 1 1 1 1 1 1 1 1 1 1 1 1 1 1 1 1 1 1 1 1 1 1 1 1 1 1 1 1 1 1 1 1 1 1 1 1 1 1 1 1 1 1 1 1 1 1 1 1 1 1 </DataArray>
</Cells>
<Points>
<DataArray type="Float32" Name="Position" NumberOfComponents="3" >
0.018566 0.000939021 -0.023866 0.0189337 0.00128879 -0.0236628 0.0190885 0.00130687 -0.0236627 0.0186945 0.00140837 -0.0238177 0.0193747 0.0014519 -0.0234418 0.019422 0.00148833 -0.0233934 0.0199448 0.00116973 -0.0230977 0.0184155 0.00167329 -0.0239607 0.019943 0.00174949 -0.0230797 0.0202254 0.0018107 -0.0229242 0.020711 0.00131707 -0.0227137 0.0209449 0.0013389 -0.0225435 0.0207391 0.00220523 -0.0226534 0.020609 0.0024785 -0.0227385 0.0206276 0.00266119 -0.0226951 0.0199416 0.00313035 -0.0230993 0.0211292 0.00168723 -0.0224801 0.0210636 0.00210138 -0.0224997 0.0213218 0.00204499 -0.0223186 0.0216941 0.000808115 -0.0221296 0.0184262 0.0032515 -0.0239233 0.0217364 0.0010566 -0.0221624 0.0211094 0.00351412 -0.0224186 0.0172223 0.00153712 -0.0245995 0.0196329 0.00391468 -0.0232401 0.0211811 0.00359959 -0.0224122 0.0199292 0.00400178 -0.0230852 0.0202433 0.00409191 -0.0228983 0.0220008 0.00149223 -0.0219689 0.0196941 0.00419095 -0.0230194 0.0215265 0.00376933 -0.0222267 0.0172692 0.00259647 -0.0238911 0.0204469 0.00429038 -0.0215807 0.0208576 0.00414768 -0.0216267 0.0221602 0.00265309 -0.0218685 0.0198771 0.00410555 -0.0182791 0.0195265 0.00452335 -0.020375 0.0218865 0.00355017 -0.0219855 0.0220643 0.00322334 -0.0217395 0.0223012 0.00282832 -0.0217985 0.0209202 0.00355628 -0.0195331 0.0164256 0.00262002 -0.0225504 0.0201269 0.00375491 -0.0180395 0.0163697 0.00315834 -0.0216816 0.0210503 0.00181956 -0.0183196 0.021205 0.00116861 -0.0185221 0.0189697 0.00427376 -0.0165193 0.0195662 0.00372433 -0.0167099 0.019341 0.00368498 -0.016143 0.0195933 0.00325549 -0.0161112 0.0197732 0.00106375 -0.0154906 0.0159939 0.00495912 -0.0163426 0.0159831 0.0051557 -0.0141844 0.01876 0.00147767 -0.013341 0.0186639 0.00165678 -0.0131682 
</DataArray>
</Points>
</Piece>
</UnstructuredGrid>
</VTKFile>
