<?xml version="1.0"?>
<VTKFile type="UnstructuredGrid" version="0.1" byte_order="LittleEndian">
<UnstructuredGrid>
<Piece NumberOfPoints="8" NumberOfCells="8">
<PointData Vectors="Particles">
<DataArray type="Float32" Name="Mass" NumberOfComponents="1" >
1.41117e-08 1.41117e-08 1.41117e-08 1.41117e-08 1.41117e-08 1.41117e-08 1.41117e-08 1.41117e-08 
</DataArray>
<DataArray type="Float32" Name="Radius" NumberOfComponents="1" >
0.00015 0.00015 0.00015 0.00015 0.00015 0.00015 0.00015 0.00015 
</DataArray>
<DataArray type="Float32" Name="Velocity" NumberOfComponents="3" >
0.0126007 -0.000169787 -0.0332666 0.0131217 -2.61047e-05 -0.0336545 0.0135599 0.000216142 -0.0338671 0.0134069 -0.000242905 -0.0336692 0.0147056 0.000426549 -0.0335394 0.0155948 0.000344764 -0.0322827 0.0161801 -0.00041082 -0.0327503 0.0152996 -0.000271923 -0.0348287 
</DataArray>
<DataArray type="Float32" Name="Force" NumberOfComponents="3" >
4.06231e-10 1.20449e-12 -1.87716e-10 4.06803e-10 -2.86574e-12 -1.89788e-10 4.0407e-10 -1.10309e-11 -1.89002e-10 4.04536e-10 4.30357e-12 -1.92682e-10 3.68229e-10 -2.25167e-11 -1.69936e-10 2.90456e-10 -2.41868e-11 -1.22172e-10 2.73453e-10 2.07912e-11 -1.18889e-10 3.78206e-10 8.72672e-12 -1.83348e-10 
</DataArray>
<DataArray type="Float32" Name="Active" NumberOfComponents="1" >
1 1 1 1 1 1 1 1 
</DataArray>
</PointData>
<CellData /> 
<Cells>
<DataArray type="Int32" Name="connectivity" format="ascii">
0 1 2 3 4 5 6 7 </DataArray>
<DataArray type="Int32" Name="offsets" format="ascii">
1 2 3 4 5 6 7 8 </DataArray>
<DataArray type="UInt8" Name="types" format="ascii">
1 1 1 1 1 1 1 1 </DataArray>
</Cells>
<Points>
<DataArray type="Float32" Name="Position" NumberOfComponents="3" >
0.0114108 0.000330954 0.000376306 0.0115737 -3.91033e-05 -0.000229303 0.0116597 -0.000706534 -0.000707943 0.0116605 0.000546191 -0.00052466 0.0118044 -0.00175974 -0.00191151 0.011852 -0.00268405 -0.00313066 0.0123004 0.00255851 -0.00396314 0.0123638 0.000758392 -0.00278522 
</DataArray>
</Points>
</Piece>
</UnstructuredGrid>
</VTKFile>
