<?xml version="1.0"?>
<VTKFile type="UnstructuredGrid" version="0.1" byte_order="LittleEndian">
<UnstructuredGrid>
<Piece NumberOfPoints="39" NumberOfCells="39">
<PointData Vectors="Particles">
<DataArray type="Float32" Name="Mass" NumberOfComponents="1" >
1.41117e-08 1.41117e-08 1.41117e-08 1.41117e-08 1.41117e-08 1.41117e-08 1.41117e-08 1.41117e-08 1.41117e-08 1.41117e-08 1.41117e-08 1.41117e-08 1.41117e-08 1.41117e-08 1.41117e-08 1.41117e-08 1.41117e-08 1.41117e-08 1.41117e-08 1.41117e-08 1.41117e-08 1.41117e-08 1.41117e-08 1.41117e-08 1.41117e-08 1.41117e-08 1.41117e-08 1.41117e-08 1.41117e-08 1.41117e-08 1.41117e-08 1.41117e-08 1.41117e-08 1.41117e-08 1.41117e-08 1.41117e-08 1.41117e-08 1.41117e-08 1.41117e-08 
</DataArray>
<DataArray type="Float32" Name="Radius" NumberOfComponents="1" >
0.00015 0.00015 0.00015 0.00015 0.00015 0.00015 0.00015 0.00015 0.00015 0.00015 0.00015 0.00015 0.00015 0.00015 0.00015 0.00015 0.00015 0.00015 0.00015 0.00015 0.00015 0.00015 0.00015 0.00015 0.00015 0.00015 0.00015 0.00015 0.00015 0.00015 0.00015 0.00015 0.00015 0.00015 0.00015 0.00015 0.00015 0.00015 0.00015 
</DataArray>
<DataArray type="Float32" Name="Velocity" NumberOfComponents="3" >
0 0 0 0 0 0 0 0 0 0 0 0 0 0 0 0 0 0 0 0 0 0 0 0 0 0 0 0 0 0 0 0 0 0 0 0 0 0 0 0 0 0 -0.0043547 0.000196777 -0.0065105 -0.00457664 0.000108878 -0.00724652 0 0 0 -0.00858038 4.63154e-05 -0.0131865 -0.00305778 0.000351728 -0.00414677 0 0 0 0 0 0 0 0 0 -0.00183409 2.91953e-05 -0.00314616 0 0 0 0 0 0 -0.00724053 0.000123879 -0.0110298 -0.00784495 0.00010931 -0.012658 0 0 0 0 0 0 0 0 0 -0.00244367 0.000264629 -0.00339075 0 0 0 -0.00463479 0.00010863 -0.00765577 -0.00375255 0.000118443 -0.00616842 -0.00178002 6.60748e-05 -0.00293572 -0.00289309 0.000140919 -0.00437927 0 0 0 0 0 0 -0.00322133 0.00013729 -0.00522383 
</DataArray>
<DataArray type="Float32" Name="Force" NumberOfComponents="3" >
2.44612e-10 -4.07413e-12 1.57858e-09 3.00134e-10 -7.17213e-12 1.4844e-09 2.30608e-10 9.75129e-12 1.64202e-09 2.7902e-10 -8.11136e-12 1.35767e-09 2.88048e-10 -7.75791e-12 1.33154e-09 2.92006e-10 -9.16211e-12 1.17713e-09 3.16853e-10 -1.21058e-11 1.243e-09 2.81878e-10 -1.05844e-11 1.10151e-09 2.96389e-10 -9.55188e-12 9.7186e-10 2.46669e-10 -1.03677e-11 1.326e-09 3.13972e-10 -1.46843e-11 1.23477e-09 2.73238e-10 -1.53651e-11 1.04666e-09 2.50101e-10 -1.1551e-11 1.25624e-09 2.5769e-10 -1.30008e-11 7.65445e-10 1.06394e-11 -8.73064e-12 5.78978e-12 9.50422e-12 -2.35181e-12 4.92969e-12 2.57356e-10 -2.07133e-11 9.19599e-10 1.23994e-11 2.16134e-13 -7.98321e-12 1.00324e-11 -2.07457e-12 9.72199e-12 1.22832e-10 2.22538e-12 5.34844e-10 1.92665e-10 3.16188e-11 1.27787e-09 2.59474e-10 -7.61412e-12 7.67739e-10 -1.69593e-13 -4.79706e-15 1.32504e-12 1.78444e-10 -1.40955e-11 4.67136e-10 2.63542e-10 -1.75455e-11 1.09492e-09 1.40473e-11 -1.47868e-12 -1.17062e-12 1.6238e-11 -3.75285e-12 7.23126e-12 9.66097e-11 -1.42277e-11 2.55758e-10 1.65439e-10 -1.67417e-11 4.94156e-10 2.31762e-10 1.25051e-13 6.67917e-10 1.87172e-11 -3.96089e-12 2.78765e-11 1.00856e-10 -1.38885e-11 2.68531e-10 3.86832e-12 -3.31283e-12 -3.75702e-13 6.17768e-12 1.25175e-12 4.25501e-12 4.51699e-13 2.35192e-12 2.30063e-13 3.70702e-12 -3.29465e-12 2.0045e-12 1.73114e-10 1.20928e-11 9.5038e-10 1.78168e-10 -1.69854e-11 5.9081e-10 2.20425e-12 -2.6842e-12 3.98697e-13 
</DataArray>
<DataArray type="Float32" Name="Active" NumberOfComponents="1" >
0 0 0 0 0 0 0 0 0 0 0 0 0 0 1 1 0 1 1 0 0 0 1 0 0 1 1 0 0 0 1 0 1 1 1 1 0 0 1 
</DataArray>
</PointData>
<CellData /> 
<Cells>
<DataArray type="Int32" Name="connectivity" format="ascii">
0 1 2 3 4 5 6 7 8 9 10 11 12 13 14 15 16 17 18 19 20 21 22 23 24 25 26 27 28 29 30 31 32 33 34 35 36 37 38 </DataArray>
<DataArray type="Int32" Name="offsets" format="ascii">
1 2 3 4 5 6 7 8 9 10 11 12 13 14 15 16 17 18 19 20 21 22 23 24 25 26 27 28 29 30 31 32 33 34 35 36 37 38 39 </DataArray>
<DataArray type="UInt8" Name="types" format="ascii">
1 1 1 1 1 1 1 1 1 1 1 1 1 1 1 1 1 1 1 1 1 1 1 1 1 1 1 1 1 1 1 1 1 1 1 1 1 1 1 </DataArray>
</Cells>
<Points>
<DataArray type="Float32" Name="Position" NumberOfComponents="3" >
-0.00330695 0.000894683 -0.00153799 -0.00406132 0.000869355 -0.00305144 -0.0027379 0.00143707 -0.000441734 -0.00448237 0.00119956 -0.00350959 -0.00463907 0.00129297 -0.00374304 -0.00547388 0.00152515 -0.00516406 -0.00510234 0.00174159 -0.00438765 -0.00561102 0.00178757 -0.00530898 -0.00683707 0.00157415 -0.00758799 -0.00370881 0.0022157 -0.00162416 -0.00491373 0.00198681 -0.00379021 -0.00552373 0.00219821 -0.00492505 -0.00378247 0.00251102 -0.00154209 -0.00762416 0.00227636 -0.00842196 -0.00980367 0.0065806 -0.00349888 -0.0116705 0.0064509 -0.0068392 -0.00568348 0.00266831 -0.00489141 -0.0129606 0.00639319 -0.00455742 -0.00673503 0.00656397 0.000643202 -0.00387596 0.00463084 0.000719431 -0.00274902 0.00292405 0.000588596 -0.00698132 0.00273412 -0.00713438 -0.0115156 0.00513606 -0.0119237 -0.00891609 0.00279084 -0.010502 -0.00407049 0.00309935 -0.00157413 -0.0119239 0.00656646 -0.00401821 -0.0151053 0.00637713 -0.00953967 -0.00567517 0.00501828 -0.0018578 -0.00521692 0.00432709 -0.00246796 -0.00692168 0.00321135 -0.00668009 -0.00710693 0.00646688 -0.000833344 -0.00578334 0.00496436 -0.00212325 -0.0135022 0.00624086 -0.0107071 -0.0123727 0.00617147 -0.00966579 -0.00964675 0.00564678 -0.00760357 -0.0088406 0.00642227 -0.00343849 -0.00324967 0.00361318 0.000239592 -0.00476953 0.00411367 -0.0019941 -0.0108495 0.00625025 -0.0071519 
</DataArray>
</Points>
</Piece>
</UnstructuredGrid>
</VTKFile>
