<?xml version="1.0"?>
<VTKFile type="UnstructuredGrid" version="0.1" byte_order="LittleEndian">
<UnstructuredGrid>
<Piece NumberOfPoints="9" NumberOfCells="9">
<PointData Vectors="Particles">
<DataArray type="Float32" Name="Mass" NumberOfComponents="1" >
1.41117e-08 1.41117e-08 1.41117e-08 1.41117e-08 1.41117e-08 1.41117e-08 1.41117e-08 1.41117e-08 1.41117e-08 
</DataArray>
<DataArray type="Float32" Name="Radius" NumberOfComponents="1" >
0.00015 0.00015 0.00015 0.00015 0.00015 0.00015 0.00015 0.00015 0.00015 
</DataArray>
<DataArray type="Float32" Name="Velocity" NumberOfComponents="3" >
0 0 0 0 0 0 -0.0043826 -3.31556e-05 -0.0075771 -0.00171466 -0.000123493 -0.00305893 -0.00164841 -0.000314627 -0.00326719 0 0 0 0 0 0 -0.00344923 6.14475e-05 -0.00578063 -0.00343247 -9.11736e-05 -0.00596949 
</DataArray>
<DataArray type="Float32" Name="Force" NumberOfComponents="3" >
1.39472e-10 -7.90463e-12 3.18419e-10 7.53889e-11 -2.34562e-12 1.73483e-10 1.76177e-11 -7.84036e-12 8.1975e-12 8.1652e-13 -1.7806e-12 1.0888e-13 1.39232e-11 -1.61433e-12 2.41575e-11 1.98338e-11 -3.08048e-12 3.86687e-11 1.69864e-10 -6.38942e-12 3.88687e-10 7.01293e-12 -4.52572e-12 9.09596e-12 5.11749e-12 -9.414e-12 1.59462e-12 
</DataArray>
<DataArray type="Float32" Name="Active" NumberOfComponents="1" >
0 0 1 1 1 0 0 1 1 
</DataArray>
</PointData>
<CellData /> 
<Cells>
<DataArray type="Int32" Name="connectivity" format="ascii">
0 1 2 3 4 5 6 7 8 </DataArray>
<DataArray type="Int32" Name="offsets" format="ascii">
1 2 3 4 5 6 7 8 9 </DataArray>
<DataArray type="UInt8" Name="types" format="ascii">
1 1 1 1 1 1 1 1 1 </DataArray>
</Cells>
<Points>
<DataArray type="Float32" Name="Position" NumberOfComponents="3" >
-0.0104254 0.00294795 -0.0127883 -0.0131591 0.00106719 -0.0185692 -0.01595 0.00549007 -0.017182 -0.0140476 0.0035945 -0.0184072 -0.0154221 0.0023712 -0.0219872 -0.014008 0.00184986 -0.0196732 -0.0112265 0.00182974 -0.0148993 -0.0141332 0.00546586 -0.0147589 -0.0152212 0.00505152 -0.017401 
</DataArray>
</Points>
</Piece>
</UnstructuredGrid>
</VTKFile>
