<?xml version="1.0"?>
<VTKFile type="UnstructuredGrid" version="0.1" byte_order="LittleEndian">
<UnstructuredGrid>
<Piece NumberOfPoints="33" NumberOfCells="33">
<PointData Vectors="Particles">
<DataArray type="Float32" Name="Mass" NumberOfComponents="1" >
1.41117e-08 1.41117e-08 1.41117e-08 1.41117e-08 1.41117e-08 1.41117e-08 1.41117e-08 1.41117e-08 1.41117e-08 1.41117e-08 1.41117e-08 1.41117e-08 1.41117e-08 1.41117e-08 1.41117e-08 1.41117e-08 1.41117e-08 1.41117e-08 1.41117e-08 1.41117e-08 1.41117e-08 1.41117e-08 1.41117e-08 1.41117e-08 1.41117e-08 1.41117e-08 1.41117e-08 1.41117e-08 1.41117e-08 1.41117e-08 1.41117e-08 1.41117e-08 1.41117e-08 
</DataArray>
<DataArray type="Float32" Name="Radius" NumberOfComponents="1" >
0.00015 0.00015 0.00015 0.00015 0.00015 0.00015 0.00015 0.00015 0.00015 0.00015 0.00015 0.00015 0.00015 0.00015 0.00015 0.00015 0.00015 0.00015 0.00015 0.00015 0.00015 0.00015 0.00015 0.00015 0.00015 0.00015 0.00015 0.00015 0.00015 0.00015 0.00015 0.00015 0.00015 
</DataArray>
<DataArray type="Float32" Name="Velocity" NumberOfComponents="3" >
-0.0134031 -0.000103543 -0.0274 -0.0159578 -0.00037652 -0.0313463 -0.016005 -0.000386756 -0.0313966 -0.0135461 -0.000207363 -0.0272854 -0.0131019 -0.000277473 -0.0259672 -0.0144015 -0.000460298 -0.0281084 -0.0129807 -0.000397543 -0.025687 -0.0132172 -0.000460817 -0.0261005 -0.0180167 -0.000402043 -0.0341595 -0.0164371 -0.000519907 -0.031404 -0.012383 -0.000337193 -0.0246189 -0.0193596 -0.000239209 -0.036031 -0.0115142 -0.000313735 -0.0229142 -0.0165211 -0.000385097 -0.0305505 -0.0187287 -0.000220482 -0.034149 -0.0199565 -0.000156339 -0.0363303 -0.0203148 -0.000144827 -0.0370481 -0.017815 -0.000185065 -0.0322208 -0.0206384 -9.5081e-05 -0.037556 -0.0147006 -0.000213216 -0.0265848 -0.0177759 -8.11494e-05 -0.0318988 -0.0168992 -8.21379e-05 -0.030302 -0.0209972 -7.01381e-05 -0.0383221 -0.00796963 -0.000162061 -0.0160439 -0.0183954 -5.21971e-05 -0.0329679 -0.0201259 -5.74943e-05 -0.0363902 -0.0204489 -4.67898e-05 -0.0371091 -0.0123693 -0.00019412 -0.0223526 -0.0182289 3.18279e-05 -0.032519 -0.020975 -5.82343e-05 -0.0388665 -0.0197954 9.4218e-06 -0.0357497 -0.0180186 8.11122e-05 -0.0320686 -0.00711343 -0.000184336 -0.0139113 
</DataArray>
<DataArray type="Float32" Name="Force" NumberOfComponents="3" >
-9.20408e-11 5.72651e-11 1.3075e-10 -6.52232e-11 7.69882e-11 1.91028e-10 -6.80665e-11 7.80658e-11 1.94115e-10 -9.95462e-11 6.921e-11 1.34974e-10 -1.11238e-10 7.5468e-11 1.04924e-10 -1.00596e-10 8.91878e-11 1.45662e-10 -4.59936e-11 9.13046e-11 4.07151e-11 -2.17941e-11 7.43472e-11 4.03811e-11 1.87488e-10 -3.53422e-11 7.86561e-11 2.04496e-10 -3.80769e-11 6.43429e-11 -2.32364e-11 8.43702e-11 3.42705e-11 1.47686e-10 -3.60343e-11 3.02762e-11 4.9482e-11 5.95541e-11 5.12579e-12 1.73386e-10 -8.89334e-11 6.31222e-11 8.86418e-11 -3.38066e-11 4.95582e-11 4.63863e-11 -3.794e-11 5.23878e-11 3.99914e-11 -3.20023e-11 5.39141e-11 8.1251e-11 -4.60589e-11 7.80148e-11 1.12205e-11 -2.11587e-11 5.53652e-11 9.19133e-11 -4.51413e-11 1.08328e-10 5.6274e-11 -3.31231e-11 8.51841e-11 6.44146e-11 -3.55602e-11 9.2299e-11 -2.81298e-11 -1.29346e-11 4.23365e-11 8.7505e-11 4.87027e-13 -4.42399e-11 4.01624e-11 -3.00122e-11 8.2148e-11 -3.81134e-12 -1.90753e-11 6.00182e-11 -2.84463e-11 -1.35375e-11 3.9276e-11 9.28334e-11 -4.43773e-11 1.25916e-10 2.34851e-11 -2.29284e-11 9.04698e-11 -1.08641e-10 -2.41149e-12 -9.23545e-12 -4.11367e-11 -8.37523e-12 3.97887e-11 1.00951e-11 -1.77252e-11 8.21847e-11 6.72234e-11 -3.59455e-12 6.21863e-11 
</DataArray>
<DataArray type="Float32" Name="Active" NumberOfComponents="1" >
0 0 0 0 0 0 1 1 1 1 1 1 1 1 1 1 1 1 1 1 1 1 1 1 1 1 1 1 1 1 1 1 1 
</DataArray>
</PointData>
<CellData /> 
<Cells>
<DataArray type="Int32" Name="connectivity" format="ascii">
0 1 2 3 4 5 6 7 8 9 10 11 12 13 14 15 16 17 18 19 20 21 22 23 24 25 26 27 28 29 30 31 32 </DataArray>
<DataArray type="Int32" Name="offsets" format="ascii">
1 2 3 4 5 6 7 8 9 10 11 12 13 14 15 16 17 18 19 20 21 22 23 24 25 26 27 28 29 30 31 32 33 </DataArray>
<DataArray type="UInt8" Name="types" format="ascii">
1 1 1 1 1 1 1 1 1 1 1 1 1 1 1 1 1 1 1 1 1 1 1 1 1 1 1 1 1 1 1 1 1 </DataArray>
</Cells>
<Points>
<DataArray type="Float32" Name="Position" NumberOfComponents="3" >
-0.0186652 0.000841915 -0.0241403 -0.0193717 0.00100692 -0.023723 -0.0193859 0.00102708 -0.0237092 -0.0187499 0.00115347 -0.024104 -0.0187637 0.00160205 -0.0240368 -0.0191482 0.00169664 -0.0238208 -0.0186814 0.00181937 -0.0236844 -0.0187177 0.00186322 -0.0235529 -0.0195964 0.00138332 -0.022404 -0.0192832 0.00179047 -0.0225488 -0.0184831 0.00181898 -0.0236564 -0.0195288 0.00095663 -0.0215691 -0.018104 0.00188378 -0.0233507 -0.0187498 0.00219968 -0.0213549 -0.0188067 0.00184494 -0.0202103 -0.0187343 0.00140736 -0.0194689 -0.0187894 0.00114332 -0.0193919 -0.0183062 0.00232969 -0.01963 -0.0183621 0.00117271 -0.0182211 -0.0175599 0.00282509 -0.0198221 -0.0178086 0.00254784 -0.0185078 -0.0176408 0.00272104 -0.018646 -0.0179964 0.000938721 -0.0171101 -0.0168017 0.00104721 -0.0231635 -0.017718 0.00247819 -0.0179167 -0.0178212 0.00175318 -0.0171557 -0.0175433 0.00162035 -0.0163213 -0.0167342 0.00301326 -0.0195052 -0.0170494 0.00273182 -0.0164267 -0.0167109 0.000994001 -0.013801 -0.0166596 0.00225821 -0.0145213 -0.0165501 0.00293288 -0.0153449 -0.0162399 0.00121763 -0.0223887 
</DataArray>
</Points>
</Piece>
</UnstructuredGrid>
</VTKFile>
