<?xml version="1.0"?>
<VTKFile type="UnstructuredGrid" version="0.1" byte_order="LittleEndian">
<UnstructuredGrid>
<Piece NumberOfPoints="66" NumberOfCells="66">
<PointData Vectors="Particles">
<DataArray type="Float32" Name="Mass" NumberOfComponents="1" >
1.41117e-08 1.41117e-08 1.41117e-08 1.41117e-08 1.41117e-08 1.41117e-08 1.41117e-08 1.41117e-08 1.41117e-08 1.41117e-08 1.41117e-08 1.41117e-08 1.41117e-08 1.41117e-08 1.41117e-08 1.41117e-08 1.41117e-08 1.41117e-08 1.41117e-08 1.41117e-08 1.41117e-08 1.41117e-08 1.41117e-08 1.41117e-08 1.41117e-08 1.41117e-08 1.41117e-08 1.41117e-08 1.41117e-08 1.41117e-08 1.41117e-08 1.41117e-08 1.41117e-08 1.41117e-08 1.41117e-08 1.41117e-08 1.41117e-08 1.41117e-08 1.41117e-08 1.41117e-08 1.41117e-08 1.41117e-08 1.41117e-08 1.41117e-08 1.41117e-08 1.41117e-08 1.41117e-08 1.41117e-08 1.41117e-08 1.41117e-08 1.41117e-08 1.41117e-08 1.41117e-08 1.41117e-08 1.41117e-08 1.41117e-08 1.41117e-08 1.41117e-08 1.41117e-08 1.41117e-08 1.41117e-08 1.41117e-08 1.41117e-08 1.41117e-08 1.41117e-08 1.41117e-08 
</DataArray>
<DataArray type="Float32" Name="Radius" NumberOfComponents="1" >
0.00015 0.00015 0.00015 0.00015 0.00015 0.00015 0.00015 0.00015 0.00015 0.00015 0.00015 0.00015 0.00015 0.00015 0.00015 0.00015 0.00015 0.00015 0.00015 0.00015 0.00015 0.00015 0.00015 0.00015 0.00015 0.00015 0.00015 0.00015 0.00015 0.00015 0.00015 0.00015 0.00015 0.00015 0.00015 0.00015 0.00015 0.00015 0.00015 0.00015 0.00015 0.00015 0.00015 0.00015 0.00015 0.00015 0.00015 0.00015 0.00015 0.00015 0.00015 0.00015 0.00015 0.00015 0.00015 0.00015 0.00015 0.00015 0.00015 0.00015 0.00015 0.00015 0.00015 0.00015 0.00015 0.00015 
</DataArray>
<DataArray type="Float32" Name="Velocity" NumberOfComponents="3" >
0 0 0 0 0 0 0 0 0 0 0 0 0 0 0 0 0 0 0 0 0 0 0 0 0 0 0 0 0 0 0 0 0 0.0124416 -0.000436561 -0.034823 0 0 0 0 0 0 0.0127569 -0.000402226 -0.0338539 0 0 0 0 0 0 0.012769 -0.000408963 -0.0340347 0.0106204 0.000767706 -0.0230242 0.00810216 0.000864675 -0.0183679 0.0127719 0.000415066 -0.0278205 0 0 0 0.0122374 0.000605592 -0.0260655 0.00659585 0.000209119 -0.0143301 0.0155468 -7.47181e-05 -0.0355895 0.0142592 0.000331627 -0.0305341 0 0 0 0 0 0 0.0127736 0.000576554 -0.0269116 0.0132317 0.000512548 -0.0279396 0.00714715 0.000283592 -0.0153918 0.0146113 0.00026789 -0.0313568 0.00599963 0.000283973 -0.0134485 0.00844685 0.000364416 -0.0177316 0.0130798 0.000249327 -0.0260407 0 0 0 0.0117001 0.000347973 -0.0234752 0.0121803 0.000339726 -0.0243585 0.0158195 3.90338e-05 -0.0350206 0.0137934 0.000261307 -0.0274074 0 0 0 0.0123562 0.000654314 -0.0258185 0.0138602 0.000347829 -0.0276092 0.0170534 8.58282e-05 -0.0343563 0.0118516 0.000511299 -0.023986 0.0158017 0.000254007 -0.0315935 0.010998 0.000573537 -0.0224837 0.00942833 0.000648365 -0.0197745 0.0166422 0.000204001 -0.033771 0.00994143 0.000663867 -0.0207192 0.0176659 4.65963e-05 -0.0366018 0 0 0 0.00894151 0.000698956 -0.0190301 0.0160532 0.000291715 -0.0329192 0.0129419 0.000620326 -0.026386 0.0140333 0.000531749 -0.0285821 0.0165245 0.000185126 -0.0345501 0.0173142 3.9925e-05 -0.03706 0.0173741 6.98098e-06 -0.037462 0.0170694 6.78091e-05 -0.0364129 0.0149137 0.000396721 -0.0307569 0.0146865 0.000425042 -0.0302973 0.014429 0.000464652 -0.0297289 0.0168388 -3.90222e-05 -0.0375438 0.0163202 1.13688e-05 -0.036008 0.015339 0.000191671 -0.0328923 
</DataArray>
<DataArray type="Float32" Name="Force" NumberOfComponents="3" >
-1.84709e-10 5.27775e-12 1.66766e-09 -1.92474e-10 6.70069e-12 1.58002e-09 -2.38693e-10 -4.49523e-12 1.42197e-09 -2.82384e-10 -8.30335e-12 1.29048e-09 -2.82775e-10 -6.42506e-12 1.12105e-09 -2.94153e-10 -8.79393e-12 1.14101e-09 -3.15699e-10 -1.02837e-11 1.18922e-09 -3.08586e-10 -1.22764e-11 1.15399e-09 -3.03412e-10 -9.10771e-12 1.0503e-09 -1.87845e-10 8.06029e-12 1.36851e-09 -1.73923e-10 1.66173e-11 1.37326e-09 4.48666e-10 2.92814e-11 -7.57605e-11 -1.80801e-10 1.17245e-11 1.25696e-09 -2.84061e-10 -7.11221e-12 8.85982e-10 4.23447e-10 3.90922e-11 -5.03007e-11 -2.4859e-10 -1.83474e-11 9.0185e-10 -1.44653e-10 2.21121e-11 1.33142e-09 4.28051e-10 3.8349e-11 -5.51623e-11 4.06888e-11 1.74433e-11 2.79329e-10 -5.91498e-11 7.20182e-12 3.99437e-10 1.57992e-10 2.49026e-11 1.61651e-10 -2.42452e-10 -2.05689e-11 8.02792e-10 8.46168e-11 1.40932e-11 2.24054e-10 -1.99938e-10 -9.77577e-12 5.07854e-10 3.06141e-10 2.38342e-11 1.99439e-11 1.65484e-10 1.92646e-11 1.41145e-10 -2.22788e-10 -1.3629e-11 9.42775e-10 -2.17714e-10 -1.59649e-11 6.57858e-10 7.74026e-11 9.95427e-12 2.24009e-10 1.02877e-10 1.35488e-11 1.96469e-10 -1.87152e-10 -1.39051e-11 4.90996e-10 1.73287e-10 1.84592e-11 1.30761e-10 -1.95862e-10 -1.48726e-11 5.01093e-10 -1.71663e-10 -1.20992e-11 4.78161e-10 -1.2625e-10 -1.165e-11 4.15342e-10 -2.04389e-10 -2.0598e-11 6.09671e-10 -1.38115e-10 -1.4144e-11 4.40493e-10 -1.33023e-10 -1.37028e-11 4.3506e-10 2.50684e-10 2.12189e-11 6.40148e-11 -1.07884e-10 -1.192e-11 3.95889e-10 -1.84096e-10 -7.86537e-12 8.3042e-10 3.07965e-11 2.38953e-12 2.68698e-10 -9.05109e-11 -1.22108e-11 3.91215e-10 -3.09421e-12 -3.04796e-12 2.97737e-10 -1.05399e-10 -1.7035e-11 4.03039e-10 -2.4818e-11 -7.87498e-12 3.196e-10 -1.23269e-10 -2.00714e-11 4.21467e-10 -1.38213e-10 -1.64144e-11 4.44614e-10 4.29008e-11 -5.22625e-12 2.52469e-10 -1.25958e-10 -1.42961e-11 4.29496e-10 9.72423e-11 9.71553e-13 2.15097e-10 -1.56781e-10 -6.70786e-12 6.41778e-10 -1.28608e-10 -1.33948e-11 4.32422e-10 6.91808e-11 -1.04119e-12 2.26081e-10 -2.9826e-11 -4.82123e-12 3.19365e-10 1.67224e-11 -4.95716e-13 2.67398e-10 1.30982e-10 4.72457e-12 1.7021e-10 1.87092e-10 6.2771e-12 1.29626e-10 2.06227e-10 5.90153e-12 1.12764e-10 1.79538e-10 7.03816e-12 1.32893e-10 7.22379e-11 4.37656e-12 2.18145e-10 7.3209e-11 4.89699e-12 2.16018e-10 6.48339e-11 4.04645e-12 2.24283e-10 2.71365e-10 1.0772e-11 5.36299e-11 2.54675e-10 1.61685e-11 5.95625e-11 1.84088e-10 1.66859e-11 1.15664e-10 
</DataArray>
<DataArray type="Float32" Name="Active" NumberOfComponents="1" >
0 0 0 0 0 0 0 0 0 0 0 1 0 0 1 0 0 1 1 1 1 0 1 1 1 1 0 0 1 1 1 1 1 1 1 0 1 1 1 1 0 1 1 1 1 1 1 1 1 1 1 0 1 1 1 1 1 1 1 1 1 1 1 1 1 1 
</DataArray>
</PointData>
<CellData /> 
<Cells>
<DataArray type="Int32" Name="connectivity" format="ascii">
0 1 2 3 4 5 6 7 8 9 10 11 12 13 14 15 16 17 18 19 20 21 22 23 24 25 26 27 28 29 30 31 32 33 34 35 36 37 38 39 40 41 42 43 44 45 46 47 48 49 50 51 52 53 54 55 56 57 58 59 60 61 62 63 64 65 </DataArray>
<DataArray type="Int32" Name="offsets" format="ascii">
1 2 3 4 5 6 7 8 9 10 11 12 13 14 15 16 17 18 19 20 21 22 23 24 25 26 27 28 29 30 31 32 33 34 35 36 37 38 39 40 41 42 43 44 45 46 47 48 49 50 51 52 53 54 55 56 57 58 59 60 61 62 63 64 65 66 </DataArray>
<DataArray type="UInt8" Name="types" format="ascii">
1 1 1 1 1 1 1 1 1 1 1 1 1 1 1 1 1 1 1 1 1 1 1 1 1 1 1 1 1 1 1 1 1 1 1 1 1 1 1 1 1 1 1 1 1 1 1 1 1 1 1 1 1 1 1 1 1 1 1 1 1 1 1 1 1 1 </DataArray>
</Cells>
<Points>
<DataArray type="Float32" Name="Position" NumberOfComponents="3" >
0.00271554 0.000791919 -0.000453617 0.00272985 0.00144501 -0.000485652 0.00380752 0.00124351 -0.00242985 0.00466147 0.00145093 -0.00393625 0.00603078 0.000864624 -0.00635852 0.00589718 0.00119618 -0.00606186 0.00576787 0.00130509 -0.00582749 0.00569803 0.00154433 -0.00567334 0.00664939 0.0012173 -0.00733027 0.00303442 0.00219932 -0.000427366 0.00285572 0.00238425 0.000134437 0.0094101 0.00186396 0.000764666 0.00309935 0.00261417 -0.00016064 0.00785713 0.000835713 -0.00948397 0.0091294 0.00245025 0.00052779 0.00597149 0.00250493 -0.00554176 0.00257314 0.00278234 0.000949794 0.00917716 0.00238144 0.000511663 0.00667975 0.00442938 -0.000682866 0.0055237 0.00461718 -0.000387435 0.00801511 0.00393202 -0.00117071 0.00638212 0.00277326 -0.00599961 0.00779004 0.00409211 -0.0017614 0.00994768 0.0025211 -0.0117528 0.0102898 0.00206152 -0.00335306 0.00907278 0.00342807 -0.00284339 0.00430448 0.00319042 -0.00212671 0.00693938 0.00309298 -0.00669274 0.0082406 0.00393775 -0.00251275 0.00849624 0.00380669 -0.00264435 0.00959283 0.00287955 -0.0105953 0.00938285 0.00324558 -0.0032082 0.00874049 0.00315696 -0.0093682 0.00962072 0.00312751 -0.00981711 0.0119921 0.00216599 -0.0124223 0.00640121 0.00355151 -0.00537442 0.0110883 0.0027078 -0.0111459 0.0112728 0.00263182 -0.0112818 0.0103373 0.00229674 -0.00406279 0.012044 0.00217743 -0.0120635 0.00390091 0.00363976 -0.000946347 0.00815941 0.00399781 -0.00296767 0.0115272 0.00254458 -0.0107603 0.0128009 0.000952609 -0.0115603 0.0100215 0.00333673 -0.00841371 0.0120307 0.00210682 -0.0104764 0.00943531 0.00354194 -0.00766088 0.00837801 0.00384183 -0.00626095 0.0118893 0.00194122 -0.00927009 0.00847734 0.00384103 -0.00612988 0.0122825 0.000843728 -0.00933079 0.0040774 0.00411496 -0.000667724 0.00759619 0.00409692 -0.00473072 0.0110346 0.0025211 -0.00732245 0.0092171 0.00366078 -0.00546699 0.00971043 0.00341349 -0.00573192 0.0110954 0.00222418 -0.00672308 0.0115882 0.00128068 -0.00709578 0.0116438 0.000981681 -0.00700541 0.0114048 0.00156736 -0.00681292 0.0100118 0.00314517 -0.00544484 0.00981702 0.00325201 -0.00515684 0.00963416 0.00335878 -0.00496759 0.0112197 0.001102 -0.00551017 0.0107698 0.0018773 -0.0048719 0.00999163 0.00285255 -0.00411022 
</DataArray>
</Points>
</Piece>
</UnstructuredGrid>
</VTKFile>
