<?xml version="1.0"?>
<VTKFile type="UnstructuredGrid" version="0.1" byte_order="LittleEndian">
<UnstructuredGrid>
<Piece NumberOfPoints="84" NumberOfCells="84">
<PointData Vectors="Particles">
<DataArray type="Float32" Name="Mass" NumberOfComponents="1" >
1.41117e-08 1.41117e-08 1.41117e-08 1.41117e-08 1.41117e-08 1.41117e-08 1.41117e-08 1.41117e-08 1.41117e-08 1.41117e-08 1.41117e-08 1.41117e-08 1.41117e-08 1.41117e-08 1.41117e-08 1.41117e-08 1.41117e-08 1.41117e-08 1.41117e-08 1.41117e-08 1.41117e-08 1.41117e-08 1.41117e-08 1.41117e-08 1.41117e-08 1.41117e-08 1.41117e-08 1.41117e-08 1.41117e-08 1.41117e-08 1.41117e-08 1.41117e-08 1.41117e-08 1.41117e-08 1.41117e-08 1.41117e-08 1.41117e-08 1.41117e-08 1.41117e-08 1.41117e-08 1.41117e-08 1.41117e-08 1.41117e-08 1.41117e-08 1.41117e-08 1.41117e-08 1.41117e-08 1.41117e-08 1.41117e-08 1.41117e-08 1.41117e-08 1.41117e-08 1.41117e-08 1.41117e-08 1.41117e-08 1.41117e-08 1.41117e-08 1.41117e-08 1.41117e-08 1.41117e-08 1.41117e-08 1.41117e-08 1.41117e-08 1.41117e-08 1.41117e-08 1.41117e-08 1.41117e-08 1.41117e-08 1.41117e-08 1.41117e-08 1.41117e-08 1.41117e-08 1.41117e-08 1.41117e-08 1.41117e-08 1.41117e-08 1.41117e-08 1.41117e-08 1.41117e-08 1.41117e-08 1.41117e-08 1.41117e-08 1.41117e-08 1.41117e-08 
</DataArray>
<DataArray type="Float32" Name="Radius" NumberOfComponents="1" >
0.00015 0.00015 0.00015 0.00015 0.00015 0.00015 0.00015 0.00015 0.00015 0.00015 0.00015 0.00015 0.00015 0.00015 0.00015 0.00015 0.00015 0.00015 0.00015 0.00015 0.00015 0.00015 0.00015 0.00015 0.00015 0.00015 0.00015 0.00015 0.00015 0.00015 0.00015 0.00015 0.00015 0.00015 0.00015 0.00015 0.00015 0.00015 0.00015 0.00015 0.00015 0.00015 0.00015 0.00015 0.00015 0.00015 0.00015 0.00015 0.00015 0.00015 0.00015 0.00015 0.00015 0.00015 0.00015 0.00015 0.00015 0.00015 0.00015 0.00015 0.00015 0.00015 0.00015 0.00015 0.00015 0.00015 0.00015 0.00015 0.00015 0.00015 0.00015 0.00015 0.00015 0.00015 0.00015 0.00015 0.00015 0.00015 0.00015 0.00015 0.00015 0.00015 0.00015 0.00015 
</DataArray>
<DataArray type="Float32" Name="Velocity" NumberOfComponents="3" >
0.000345258 0.000538852 -0.0395567 0.000314764 0.000411446 -0.0257862 -5.30906e-05 0.000526315 -0.0311672 0.000235459 0.000558399 -0.0391447 0.000119668 0.000594394 -0.0400929 -1.60617e-06 0.000557114 -0.0347302 0.00025952 0.000541699 -0.0396039 0.000398052 0.00045213 -0.0334321 4.18088e-05 0.000541845 -0.0322079 0.000117198 0.000506357 -0.0283857 0.000358994 0.000497392 -0.0337796 0.00022938 0.000469512 -0.0266806 0.000211898 0.000473541 -0.0261766 0.000169 0.000559522 -0.03468 0.000350724 0.000474891 -0.0309373 0.000210513 0.000574321 -0.0366665 0.000367061 0.000467514 -0.0310097 3.46336e-05 0.000492523 -0.0280772 0.000113131 0.000476369 -0.0256185 0.000278515 0.000529836 -0.033365 0.000275096 0.000544756 -0.0357531 0.000347305 0.000538983 -0.0402545 0.00034555 0.000520516 -0.0360442 0.000265725 0.000450333 -0.0274847 -9.46733e-05 0.000546622 -0.0337992 0.000368468 0.000523802 -0.0394931 0.00037547 0.00051265 -0.0386289 0.000353128 0.000417384 -0.0280793 6.62794e-05 0.000596638 -0.040494 0.000252527 0.000562828 -0.0365302 0.00037539 0.000504157 -0.0355526 4.58391e-05 0.000534571 -0.0314662 0.000311706 0.000401355 -0.0245091 0.000305767 0.000488169 -0.0305026 0.00021079 0.000574784 -0.0383658 0.000266802 0.000534054 -0.0414809 0.000283663 0.000475998 -0.029377 0.00014841 0.000546466 -0.0324277 -5.99464e-05 0.000530734 -0.031532 0.000310898 0.000453653 -0.0279969 0.000333325 0.000431018 -0.0283639 0.000249536 0.000535454 -0.0332274 0.000148365 0.000549015 -0.0328208 0.000389905 0.000452736 -0.0328539 0.000215018 0.000558055 -0.0400913 0.000261488 0.000501141 -0.030725 0.000305523 0.000453247 -0.0278805 0.000345824 0.00048711 -0.0318484 0.000331808 0.000408411 -0.0261116 -7.12881e-05 0.000453616 -0.0256888 1.52477e-05 0.000515782 -0.0301602 -2.46235e-06 0.000542956 -0.0325945 0.000372495 0.000423856 -0.0296176 0.000329107 0.000406493 -0.0257822 0.000175532 0.000529087 -0.0303879 0.000336025 0.000515988 -0.0347907 0.000227076 0.000529392 -0.0317887 7.25246e-05 0.000467719 -0.0254021 -7.01472e-05 0.000569208 -0.0421086 0.000298211 0.000534532 -0.0377318 0.000303855 0.00042168 -0.0259078 0.000369402 0.000478719 -0.0320714 0.000170417 0.000492996 -0.026944 1.32458e-05 0.000558823 -0.0348097 0.000175154 0.000529637 -0.0305023 0.000190794 0.000573293 -0.0365562 0.00014784 0.000535392 -0.0306951 0.000281664 0.000539085 -0.0369688 0.000237091 0.00053368 -0.0423746 0.000256056 0.000547753 -0.0385706 0.000183813 0.000547107 -0.0333237 0.000237991 0.000530306 -0.032187 0.000233432 0.000570744 -0.0363109 -5.95094e-05 0.000455167 -0.0257447 0.000303961 0.000452354 -0.0277851 7.57865e-05 0.000484963 -0.0269129 -5.29903e-05 0.000538233 -0.0321771 6.85543e-05 0.000551542 -0.0333623 0.0003107 0.000413856 -0.0258141 -3.56936e-05 0.000568901 -0.0366375 0.00031334 0.000530289 -0.0364856 0.000142107 0.000582996 -0.0373718 0.000282225 0.000516008 -0.0323329 0.000357614 0.000462018 -0.0301587 
</DataArray>
<DataArray type="Float32" Name="Force" NumberOfComponents="3" >
-1.53239e-11 -1.9481e-11 4.41348e-11 -1.55321e-11 -1.50794e-11 8.57382e-12 -4.73401e-12 -2.10166e-11 3.15184e-11 -1.12216e-11 -2.12917e-11 4.29132e-11 -8.14468e-12 -2.18442e-11 4.97362e-11 -7.7973e-12 -2.32823e-11 3.5714e-11 -1.26758e-11 -2.02757e-11 4.46123e-11 -2.05334e-11 -1.83175e-11 2.65269e-11 -8.61712e-12 -2.28636e-11 3.21821e-11 -9.52558e-12 -2.31751e-11 2.84204e-11 -1.79759e-11 -1.75902e-11 2.78216e-11 -1.03991e-11 -2.06483e-11 1.97962e-11 -1.01506e-11 -2.06636e-11 2.04407e-11 -1.00852e-11 -2.41654e-11 3.53338e-11 -1.69634e-11 -1.52123e-11 1.85326e-11 -1.05385e-11 -2.38633e-11 3.92685e-11 -1.86243e-11 -1.5398e-11 2.29708e-11 -6.31637e-12 -2.18731e-11 2.57831e-11 -7.78987e-12 -2.23774e-11 2.27953e-11 -1.34713e-11 -2.26458e-11 3.10084e-11 -1.39964e-11 -2.22095e-11 3.23351e-11 -1.53043e-11 -1.9307e-11 4.5577e-11 -1.673e-11 -1.95592e-11 3.58494e-11 -1.05833e-11 -1.84917e-11 1.40555e-11 -4.21561e-12 -2.17702e-11 3.22446e-11 -1.5901e-11 -1.89952e-11 4.02168e-11 -1.62622e-11 -1.87341e-11 3.63867e-11 -1.74524e-11 -1.65493e-11 1.47345e-11 -6.58807e-12 -2.12921e-11 4.96868e-11 -1.21876e-11 -2.30114e-11 3.83962e-11 -1.78685e-11 -1.81917e-11 3.24676e-11 -8.33927e-12 -2.26545e-11 3.32976e-11 -1.53268e-11 -1.41969e-11 8.15086e-12 -1.33159e-11 -2.04816e-11 2.32088e-11 -1.02708e-11 -2.21987e-11 3.84364e-11 -1.31827e-11 -1.9539e-11 5.07803e-11 -1.11984e-11 -2.04104e-11 1.7723e-11 -1.07856e-11 -2.41011e-11 3.20574e-11 -4.78477e-12 -2.12117e-11 3.22439e-11 -1.29604e-11 -1.62211e-11 1.63014e-11 -1.72486e-11 -1.64867e-11 1.52175e-11 -1.17665e-11 -2.36657e-11 3.19527e-11 -1.06187e-11 -2.40167e-11 3.26969e-11 -2.05498e-11 -1.846e-11 2.4872e-11 -1.06773e-11 -2.08078e-11 4.37038e-11 -1.13384e-11 -2.24801e-11 2.42072e-11 -1.26168e-11 -1.66714e-11 1.65867e-11 -1.70878e-11 -1.67686e-11 2.15259e-11 -1.60157e-11 -1.51951e-11 1.09961e-11 -3.93234e-12 -1.93793e-11 1.60593e-11 -6.21012e-12 -2.15488e-11 3.04527e-11 -7.575e-12 -2.25508e-11 3.24665e-11 -1.91362e-11 -1.759e-11 1.55982e-11 -1.58906e-11 -1.49641e-11 1.05173e-11 -1.15312e-11 -2.57254e-11 3.00528e-11 -1.69812e-11 -1.9757e-11 3.21444e-11 -1.12469e-11 -2.55859e-11 2.72482e-11 -6.86338e-12 -2.20973e-11 2.07196e-11 -2.21396e-12 -1.94995e-11 4.88253e-11 -1.43733e-11 -2.03599e-11 3.82561e-11 -1.31276e-11 -1.61395e-11 1.30572e-11 -1.87671e-11 -1.57825e-11 2.24891e-11 -9.84997e-12 -2.25626e-11 2.35244e-11 -8.03576e-12 -2.32983e-11 3.59566e-11 -1.14666e-11 -2.56718e-11 2.97235e-11 -1.01674e-11 -2.38648e-11 3.94859e-11 -1.15365e-11 -2.45746e-11 3.47662e-11 -1.39089e-11 -2.11148e-11 3.59413e-11 -1.19808e-11 -1.94389e-11 5.38776e-11 -1.24149e-11 -2.0955e-11 4.12323e-11 -1.04186e-11 -2.4407e-11 3.18053e-11 -1.13587e-11 -2.46181e-11 3.00835e-11 -1.09975e-11 -2.40572e-11 3.74661e-11 -4.12592e-12 -1.98369e-11 1.65304e-11 -1.25303e-11 -1.67619e-11 1.65517e-11 -7.44773e-12 -2.2293e-11 2.42297e-11 -5.48512e-12 -2.1739e-11 3.26729e-11 -9.27558e-12 -2.32472e-11 3.23746e-11 -1.53078e-11 -1.52624e-11 1.05907e-11 -5.44992e-12 -2.24254e-11 4.05931e-11 -1.53404e-11 -2.06032e-11 3.43288e-11 -9.22955e-12 -2.36651e-11 4.37339e-11 -1.32042e-11 -2.23193e-11 2.7557e-11 -1.73118e-11 -1.43046e-11 1.90939e-11 
</DataArray>
<DataArray type="Float32" Name="Active" NumberOfComponents="1" >
1 1 1 1 1 1 1 1 1 1 1 1 1 1 1 1 1 1 1 1 1 1 1 1 1 1 1 1 1 1 1 1 1 1 1 1 1 1 1 1 1 1 1 1 1 1 1 1 1 1 1 1 1 1 1 1 1 1 1 1 1 1 1 1 1 1 1 1 1 1 1 1 1 1 1 1 1 1 1 1 1 1 1 1 
</DataArray>
</PointData>
<CellData /> 
<Cells>
<DataArray type="Int32" Name="connectivity" format="ascii">
0 1 2 3 4 5 6 7 8 9 10 11 12 13 14 15 16 17 18 19 20 21 22 23 24 25 26 27 28 29 30 31 32 33 34 35 36 37 38 39 40 41 42 43 44 45 46 47 48 49 50 51 52 53 54 55 56 57 58 59 60 61 62 63 64 65 66 67 68 69 70 71 72 73 74 75 76 77 78 79 80 81 82 83 </DataArray>
<DataArray type="Int32" Name="offsets" format="ascii">
1 2 3 4 5 6 7 8 9 10 11 12 13 14 15 16 17 18 19 20 21 22 23 24 25 26 27 28 29 30 31 32 33 34 35 36 37 38 39 40 41 42 43 44 45 46 47 48 49 50 51 52 53 54 55 56 57 58 59 60 61 62 63 64 65 66 67 68 69 70 71 72 73 74 75 76 77 78 79 80 81 82 83 84 </DataArray>
<DataArray type="UInt8" Name="types" format="ascii">
1 1 1 1 1 1 1 1 1 1 1 1 1 1 1 1 1 1 1 1 1 1 1 1 1 1 1 1 1 1 1 1 1 1 1 1 1 1 1 1 1 1 1 1 1 1 1 1 1 1 1 1 1 1 1 1 1 1 1 1 1 1 1 1 1 1 1 1 1 1 1 1 1 1 1 1 1 1 1 1 1 1 1 1 </DataArray>
</Cells>
<Points>
<DataArray type="Float32" Name="Position" NumberOfComponents="3" >
0.00340939 0.00468039 0.0659186 0.00584355 0.00445442 0.0687595 9.98565e-06 0.00678425 0.0676372 0.00242185 0.0053153 0.0659985 0.0013849 0.00556591 0.0658073 0.000405918 0.00636341 0.0669026 0.00271889 0.00507648 0.0659038 0.00490563 0.00426386 0.0671838 0.000653389 0.0066341 0.0674222 0.00122947 0.006984 0.0682048 0.00413017 0.00496884 0.067113 0.0028442 0.00668653 0.0685599 0.00263349 0.00683007 0.0686632 0.00176097 0.00612002 0.0669205 0.0043302 0.00522892 0.0677016 0.00215235 0.00575626 0.0665091 0.00455843 0.00503 0.0676774 0.000624936 0.00708383 0.0682683 0.00131718 0.00727128 0.0687786 0.00301972 0.00578257 0.0671969 0.00291468 0.00552426 0.0667021 0.00339602 0.00458303 0.065777 0.00368035 0.00499498 0.0666391 0.0034407 0.00630307 0.0684052 -0.00023697 0.00647055 0.067095 0.00367516 0.00447377 0.0659308 0.00385907 0.00444755 0.0661077 0.00568319 0.00425856 0.0682837 0.000974999 0.00558132 0.0657179 0.00258705 0.00559908 0.0665336 0.0041802 0.00466567 0.066741 0.000663853 0.00671747 0.0675766 0.0061282 0.00428026 0.0690185 0.00360368 0.00582757 0.0677784 0.00216725 0.00552667 0.0661672 0.00279115 0.00475989 0.0655176 0.00341484 0.00608154 0.0680184 0.0014558 0.00648635 0.0673791 -2.62225e-05 0.0067439 0.0675581 0.00413334 0.0057893 0.0682972 0.00521981 0.00476009 0.0682242 0.00264784 0.00598165 0.0672151 0.00147389 0.0064333 0.0672995 0.00493793 0.00432996 0.0673036 0.00224642 0.00524559 0.0658101 0.00298948 0.00612303 0.067731 0.00405425 0.00585737 0.0683228 0.00414299 0.00524397 0.0675152 0.00594191 0.00425098 0.0686866 -0.000189 0.00736012 0.0687599 0.00045747 0.00688015 0.0678462 0.000356018 0.00662602 0.0673471 0.00551148 0.0042073 0.0679718 0.00599658 0.00423305 0.0687538 0.00174836 0.00664346 0.0678035 0.0036558 0.00519784 0.0669 0.00237887 0.00628142 0.0675121 0.000997957 0.00732896 0.0688221 -0.000221791 0.00543004 0.0653863 0.00311317 0.00512006 0.0662948 0.00440178 0.00587435 0.0687257 0.00445404 0.00496065 0.0674696 0.00196306 0.00696055 0.0685056 0.000511191 0.00634033 0.0668913 0.00174818 0.00663012 0.0677785 0.00198301 0.00582258 0.0665283 0.00136421 0.00671791 0.0677281 0.00297148 0.00531392 0.0664487 0.00254086 0.00477516 0.0653344 0.00267335 0.00525387 0.0661164 0.00190249 0.00624137 0.0672012 0.00251402 0.00617405 0.0674344 0.0023476 0.00573848 0.0665829 -9.82873e-05 0.0073575 0.0687509 0.00403914 0.00587963 0.0683445 0.000970086 0.00717044 0.0685138 2.69964e-05 0.00667485 0.0674297 0.000868252 0.00646863 0.0671909 0.00578201 0.00453496 0.0687574 0.000180394 0.00614784 0.0665159 0.00328721 0.00520061 0.0665591 0.00154626 0.00585917 0.0663614 0.00313062 0.00585541 0.0674076 0.00453346 0.0051788 0.0678555 
</DataArray>
</Points>
</Piece>
</UnstructuredGrid>
</VTKFile>
