<?xml version="1.0"?>
<VTKFile type="UnstructuredGrid" version="0.1" byte_order="LittleEndian">
<UnstructuredGrid>
<Piece NumberOfPoints="77" NumberOfCells="77">
<PointData Vectors="Particles">
<DataArray type="Float32" Name="Mass" NumberOfComponents="1" >
1.41117e-08 1.41117e-08 1.41117e-08 1.41117e-08 1.41117e-08 1.41117e-08 1.41117e-08 1.41117e-08 1.41117e-08 1.41117e-08 1.41117e-08 1.41117e-08 1.41117e-08 1.41117e-08 1.41117e-08 1.41117e-08 1.41117e-08 1.41117e-08 1.41117e-08 1.41117e-08 1.41117e-08 1.41117e-08 1.41117e-08 1.41117e-08 1.41117e-08 1.41117e-08 1.41117e-08 1.41117e-08 1.41117e-08 1.41117e-08 1.41117e-08 1.41117e-08 1.41117e-08 1.41117e-08 1.41117e-08 1.41117e-08 1.41117e-08 1.41117e-08 1.41117e-08 1.41117e-08 1.41117e-08 1.41117e-08 1.41117e-08 1.41117e-08 1.41117e-08 1.41117e-08 1.41117e-08 1.41117e-08 1.41117e-08 1.41117e-08 1.41117e-08 1.41117e-08 1.41117e-08 1.41117e-08 1.41117e-08 1.41117e-08 1.41117e-08 1.41117e-08 1.41117e-08 1.41117e-08 1.41117e-08 1.41117e-08 1.41117e-08 1.41117e-08 1.41117e-08 1.41117e-08 1.41117e-08 1.41117e-08 1.41117e-08 1.41117e-08 1.41117e-08 1.41117e-08 1.41117e-08 1.41117e-08 1.41117e-08 1.41117e-08 1.41117e-08 
</DataArray>
<DataArray type="Float32" Name="Radius" NumberOfComponents="1" >
0.00015 0.00015 0.00015 0.00015 0.00015 0.00015 0.00015 0.00015 0.00015 0.00015 0.00015 0.00015 0.00015 0.00015 0.00015 0.00015 0.00015 0.00015 0.00015 0.00015 0.00015 0.00015 0.00015 0.00015 0.00015 0.00015 0.00015 0.00015 0.00015 0.00015 0.00015 0.00015 0.00015 0.00015 0.00015 0.00015 0.00015 0.00015 0.00015 0.00015 0.00015 0.00015 0.00015 0.00015 0.00015 0.00015 0.00015 0.00015 0.00015 0.00015 0.00015 0.00015 0.00015 0.00015 0.00015 0.00015 0.00015 0.00015 0.00015 0.00015 0.00015 0.00015 0.00015 0.00015 0.00015 0.00015 0.00015 0.00015 0.00015 0.00015 0.00015 0.00015 0.00015 0.00015 0.00015 0.00015 0.00015 
</DataArray>
<DataArray type="Float32" Name="Velocity" NumberOfComponents="3" >
8.20534e-05 0.000106541 -0.0292352 9.88617e-05 8.716e-05 -0.0293786 8.28253e-05 0.000105558 -0.029351 0.000139026 4.06365e-05 -0.0293999 7.72409e-05 0.000103142 -0.0294533 9.67472e-05 9.88176e-05 -0.0296888 0.000125744 5.01561e-05 -0.0296655 0.000105239 6.27822e-05 -0.03001 0.000112538 6.21762e-05 -0.0299242 4.32817e-05 9.70908e-05 -0.0299635 6.12601e-05 9.61641e-05 -0.0302469 4.11738e-05 9.56399e-05 -0.0303029 0.000102874 0.000100374 -0.0306688 0.000109735 6.68145e-05 -0.0308388 0.000120176 6.06304e-05 -0.0309838 6.2655e-05 9.37749e-05 -0.0309805 0.0001058 9.79184e-05 -0.0309945 4.08977e-05 9.40675e-05 -0.030923 0.000148509 4.65501e-05 -0.031231 0.000109678 9.49803e-05 -0.0311714 9.26176e-05 9.55456e-05 -0.0312467 0.000156778 3.99947e-05 -0.031457 5.18936e-05 9.32172e-05 -0.031343 0.000150643 3.3855e-05 -0.0314778 9.53601e-05 9.64799e-05 -0.0316484 0.000137807 5.94209e-05 -0.0318262 0.000111953 9.43917e-05 -0.0319513 0.000114749 9.31163e-05 -0.0321031 0.000103149 9.75955e-05 -0.0321215 7.48598e-05 9.64331e-05 -0.0321848 0.000139839 5.75803e-05 -0.0323445 2.62073e-05 9.44016e-05 -0.0325852 0.000129358 6.94199e-05 -0.0325978 0.000169687 2.99545e-05 -0.0329418 0.000171181 2.87889e-05 -0.0330189 0.000102087 9.92833e-05 -0.0333455 5.12418e-05 9.72687e-05 -0.0334543 0.000132162 8.21225e-05 -0.0335052 5.63647e-05 9.79909e-05 -0.0335244 0.000102439 5.74565e-05 -0.0239248 0.000113946 2.43702e-05 -0.0240637 0.000110419 3.62581e-05 -0.0244775 4.85869e-05 0.000151042 -0.0246554 4.89641e-05 0.000159281 -0.0248203 4.98906e-05 0.000131643 -0.0248914 5.09033e-05 0.000133628 -0.0249524 8.22156e-05 5.17547e-05 -0.0251034 8.65149e-05 4.78778e-05 -0.0251059 8.25417e-05 5.34602e-05 -0.0250776 9.55048e-05 7.31323e-05 -0.0251601 0.000101623 3.22642e-05 -0.0252424 4.67329e-05 0.000104878 -0.0252853 8.13095e-05 4.51713e-05 -0.0254223 0.000112174 2.30964e-05 -0.0254656 0.000138019 1.52429e-05 -0.0255315 0.000147252 1.05908e-05 -0.0255325 0.000133804 2.06372e-05 -0.0257988 5.10763e-05 9.84434e-05 -0.0257758 5.59142e-05 0.000159217 -0.0260361 4.79353e-05 0.000131071 -0.0260383 0.000136278 1.33631e-05 -0.0263053 6.97441e-05 8.20187e-05 -0.0266665 0.000130202 2.64705e-05 -0.0267453 9.59966e-05 8.44885e-05 -0.0268848 0.000105804 2.15481e-05 -0.026914 9.66766e-05 8.46652e-05 -0.0269754 9.86783e-05 8.49026e-05 -0.0270913 5.76769e-05 0.000141828 -0.0271091 7.89327e-05 4.14569e-05 -0.0273015 6.45615e-05 0.000143469 -0.0273803 9.17238e-05 6.10438e-05 -0.0275562 0.000134132 3.21692e-05 -0.027898 8.9414e-05 8.77813e-05 -0.0284122 0.000116834 3.04125e-05 -0.0286172 0.000107321 5.2041e-05 -0.0288112 5.49498e-05 0.000106582 -0.0290319 0.000105651 6.72068e-05 -0.0291629 
</DataArray>
<DataArray type="Float32" Name="Force" NumberOfComponents="3" >
1.50444e-12 -9.42588e-12 1.78926e-11 2.30102e-13 -4.13876e-12 1.58041e-11 1.68295e-12 -9.181e-12 1.79096e-11 8.23263e-13 -1.2042e-12 1.27206e-11 7.0941e-13 -1.09493e-11 1.76215e-11 2.51041e-12 -3.75475e-12 1.33319e-11 2.55084e-12 -2.41534e-12 1.61523e-11 -6.86121e-13 -6.90432e-12 1.19659e-11 3.77384e-13 -6.14003e-12 1.52662e-11 -7.63927e-13 -8.87303e-12 1.52259e-11 3.80115e-13 -9.19471e-12 1.57983e-11 -9.99084e-13 -8.02778e-12 1.57693e-11 2.83062e-12 -7.02333e-12 1.75257e-11 1.0138e-12 -4.51143e-12 1.31503e-11 1.0315e-12 -4.20712e-12 1.60857e-11 6.98734e-13 -6.82175e-12 1.85735e-11 2.40868e-12 -6.38156e-12 1.85921e-11 -7.61436e-13 -6.83194e-12 1.83546e-11 3.88761e-12 -2.83368e-12 1.3657e-11 1.77286e-12 -5.77659e-12 1.65391e-11 2.3407e-12 -4.92799e-12 1.99041e-11 2.95846e-12 -4.43075e-12 1.5401e-11 -2.73143e-14 -6.20844e-12 2.05284e-11 2.65061e-12 -4.72502e-12 1.64325e-11 2.04632e-12 -3.73415e-12 2.00372e-11 -1.97297e-12 -4.62625e-12 1.51543e-11 1.57633e-12 -5.28823e-12 2.12752e-11 1.5072e-12 -5.50543e-12 2.02364e-11 1.43387e-12 -4.20378e-12 2.11143e-11 6.59153e-13 -3.83936e-12 2.23418e-11 -1.30833e-12 -6.0093e-12 1.65725e-11 -9.03811e-13 -4.94714e-12 2.38254e-11 2.40129e-12 -3.36132e-12 1.89652e-11 2.10949e-12 -4.83584e-12 1.8891e-11 2.00193e-12 -4.75007e-12 1.89652e-11 1.66594e-13 -4.62311e-12 2.53055e-11 -9.43119e-13 -4.1944e-12 2.60894e-11 2.87117e-12 -4.8034e-12 2.15496e-11 -8.58327e-13 -4.35906e-12 2.62014e-11 -7.01772e-12 -4.92624e-12 1.24649e-11 -1.51639e-12 -3.44249e-14 1.43112e-11 -6.34578e-12 -5.87413e-12 1.62698e-11 2.21654e-12 6.18905e-12 1.60159e-11 1.30487e-12 4.51173e-12 1.72813e-11 2.22892e-12 2.47102e-12 1.50962e-11 2.29544e-12 2.54441e-12 1.55051e-11 -9.14606e-12 -6.04176e-12 1.49545e-11 -9.96472e-12 -7.18152e-12 1.4408e-11 -8.23965e-12 -5.17754e-12 1.48013e-11 1.81492e-12 -2.49042e-13 1.44956e-11 -8.12729e-12 -8.25171e-12 1.46182e-11 -3.14002e-12 -2.83101e-12 1.72052e-11 -1.0374e-11 -7.83139e-12 1.40194e-11 -5.60322e-12 -7.13363e-12 1.20976e-11 -4.04121e-12 3.05318e-12 1.20094e-11 -6.03351e-12 3.04834e-12 1.17952e-11 -2.59012e-12 1.79218e-12 1.24291e-11 -8.59382e-13 -3.55208e-12 1.88655e-11 9.29003e-13 -4.15468e-12 1.95825e-11 1.22048e-12 -3.93997e-12 1.59988e-11 -9.55279e-12 8.81465e-13 9.27484e-12 1.3658e-12 -4.97794e-12 1.83541e-11 -4.42364e-12 -7.18307e-13 1.26137e-11 -5.91195e-13 -3.5898e-12 1.49212e-11 -3.49239e-12 -2.59651e-12 7.77023e-12 -7.47008e-13 -3.81782e-12 1.50299e-11 -1.10502e-12 -4.18209e-12 1.49779e-11 -1.84831e-13 -1.05766e-11 1.96861e-11 5.59891e-13 -1.35639e-12 9.05976e-12 7.89882e-13 -1.21852e-11 2.02555e-11 8.65881e-13 -3.81096e-12 1.07241e-11 -4.06553e-12 -8.64708e-13 1.06367e-11 1.97878e-12 -2.16471e-12 1.5513e-11 -2.45971e-12 -1.37164e-12 1.08271e-11 5.15466e-12 -1.01039e-12 1.21433e-11 -6.19797e-13 -1.26175e-11 1.46731e-11 -1.60446e-12 -8.22688e-12 1.53244e-11 
</DataArray>
<DataArray type="Float32" Name="Active" NumberOfComponents="1" >
1 1 1 1 1 1 1 1 1 1 1 1 1 1 1 1 1 1 1 1 1 1 1 1 1 1 1 1 1 1 1 1 1 1 1 1 1 1 1 1 1 1 1 1 1 1 1 1 1 1 1 1 1 1 1 1 1 1 1 1 1 1 1 1 1 1 1 1 1 1 1 1 1 1 1 1 1 
</DataArray>
</PointData>
<CellData /> 
<Cells>
<DataArray type="Int32" Name="connectivity" format="ascii">
0 1 2 3 4 5 6 7 8 9 10 11 12 13 14 15 16 17 18 19 20 21 22 23 24 25 26 27 28 29 30 31 32 33 34 35 36 37 38 39 40 41 42 43 44 45 46 47 48 49 50 51 52 53 54 55 56 57 58 59 60 61 62 63 64 65 66 67 68 69 70 71 72 73 74 75 76 </DataArray>
<DataArray type="Int32" Name="offsets" format="ascii">
1 2 3 4 5 6 7 8 9 10 11 12 13 14 15 16 17 18 19 20 21 22 23 24 25 26 27 28 29 30 31 32 33 34 35 36 37 38 39 40 41 42 43 44 45 46 47 48 49 50 51 52 53 54 55 56 57 58 59 60 61 62 63 64 65 66 67 68 69 70 71 72 73 74 75 76 77 </DataArray>
<DataArray type="UInt8" Name="types" format="ascii">
1 1 1 1 1 1 1 1 1 1 1 1 1 1 1 1 1 1 1 1 1 1 1 1 1 1 1 1 1 1 1 1 1 1 1 1 1 1 1 1 1 1 1 1 1 1 1 1 1 1 1 1 1 1 1 1 1 1 1 1 1 1 1 1 1 1 1 1 1 1 1 1 1 1 1 1 1 </DataArray>
</Cells>
<Points>
<DataArray type="Float32" Name="Position" NumberOfComponents="3" >
0.00180236 0.00680907 0.049928 0.00369196 0.00597548 0.0498238 0.00180236 0.00679595 0.0498334 0.00683447 0.00153018 0.0498262 0.00141168 0.00688617 0.0497022 0.00306602 0.0062772 0.0496173 0.00579428 0.00389686 0.0496163 0.0044326 0.00536856 0.0494224 0.00466626 0.0051661 0.0494046 3.7353e-06 0.0069497 0.0493257 0.000684724 0.00688522 0.0490881 -3.40577e-05 0.00691038 0.0490367 0.00244857 0.00644589 0.0487885 0.00424524 0.00538731 0.0487204 0.00456464 0.0050991 0.048558 0.000674393 0.00680356 0.04849 0.00258702 0.00633792 0.0484996 2.15468e-05 0.00684304 0.0485293 0.00671495 0.000988628 0.0484152 0.00321512 0.0060129 0.0483751 0.0015075 0.00665694 0.0482925 0.0066098 0.00150555 0.0481939 0.000365129 0.00679543 0.0481929 0.00607809 0.00296927 0.04811 0.00152614 0.00660426 0.0479816 0.00505777 0.00445793 0.0479109 0.00272557 0.00614586 0.0476851 0.00310509 0.0059438 0.04758 0.00196366 0.0064111 0.0475917 0.000899261 0.00664055 0.047549 0.00502889 0.00439169 0.0474654 -0.000253015 0.00664071 0.0472049 0.00424055 0.00511326 0.0472199 0.00603427 0.00266322 0.0468593 0.00606371 0.00258019 0.0467877 0.0018202 0.00629249 0.0465421 0.000418273 0.00653693 0.0464799 0.00376036 0.00535113 0.0464377 0.000527859 0.00651421 0.0464236 0.00621479 0.00439517 0.054472 0.00692621 0.0030869 0.054239 0.00661908 0.00365688 0.0539059 0.00101559 0.00747124 0.0538233 0.00134456 0.00741622 0.0536627 -0.000202774 0.00750397 0.0536052 -0.000109211 0.00750105 0.0535615 0.00593142 0.00457071 0.0534683 0.00609003 0.00434813 0.0534713 0.00586869 0.00465171 0.0534711 0.00448648 0.00600263 0.0533939 0.00646008 0.00375387 0.0532793 0.00269239 0.00697443 0.0532275 0.00603623 0.00436627 0.0532105 0.00665666 0.00336618 0.0531322 0.00717043 0.00187345 0.0530577 0.00727504 0.00145773 0.0530395 0.00703035 0.00231509 0.0528496 0.00290878 0.00683071 0.0528232 0.000991311 0.00732159 0.0526444 0.0020093 0.0071121 0.0526194 0.00724768 0.00105301 0.0524679 0.00351565 0.00644239 0.0521533 0.00680618 0.00265335 0.0519698 0.00412528 0.00601684 0.0519412 0.00638607 0.00353248 0.0519109 0.00414084 0.00599474 0.051864 0.00422134 0.00592645 0.0517684 0.000638307 0.00723922 0.0517282 0.00578436 0.00437433 0.0516608 0.00126391 0.0071437 0.051487 0.0053154 0.00488254 0.0514431 0.00687438 0.0020259 0.0510864 0.0034957 0.00622731 0.0506789 0.0063104 0.00326021 0.0505365 0.00562013 0.00432407 0.0504359 0.000468491 0.00704298 0.0501095 0.00463685 0.00531474 0.0500608 
</DataArray>
</Points>
</Piece>
</UnstructuredGrid>
</VTKFile>
