<?xml version="1.0"?>
<VTKFile type="UnstructuredGrid" version="0.1" byte_order="LittleEndian">
<UnstructuredGrid>
<Piece NumberOfPoints="2" NumberOfCells="2">
<PointData Vectors="Particles">
<DataArray type="Float32" Name="Mass" NumberOfComponents="1" >
1.41117e-08 1.41117e-08 
</DataArray>
<DataArray type="Float32" Name="Radius" NumberOfComponents="1" >
0.00015 0.00015 
</DataArray>
<DataArray type="Float32" Name="Velocity" NumberOfComponents="3" >
0.00556117 -7.34585e-06 -0.00913589 0.00478284 -9.02845e-06 -0.00792997 
</DataArray>
<DataArray type="Float32" Name="Force" NumberOfComponents="3" >
-4.12188e-12 -2.31978e-12 -7.59205e-12 -4.95461e-12 -4.07991e-14 -1.68048e-12 
</DataArray>
<DataArray type="Float32" Name="Active" NumberOfComponents="1" >
1 1 
</DataArray>
</PointData>
<CellData /> 
<Cells>
<DataArray type="Int32" Name="connectivity" format="ascii">
0 1 </DataArray>
<DataArray type="Int32" Name="offsets" format="ascii">
1 2 </DataArray>
<DataArray type="UInt8" Name="types" format="ascii">
1 1 </DataArray>
</Cells>
<Points>
<DataArray type="Float32" Name="Position" NumberOfComponents="3" >
0.015904 -0.00669899 -0.0109675 0.0155294 -0.00668657 -0.0115433 
</DataArray>
</Points>
</Piece>
</UnstructuredGrid>
</VTKFile>
