<?xml version="1.0"?>
<VTKFile type="UnstructuredGrid" version="0.1" byte_order="LittleEndian">
<UnstructuredGrid>
<Piece NumberOfPoints="69" NumberOfCells="69">
<PointData Vectors="Particles">
<DataArray type="Float32" Name="Mass" NumberOfComponents="1" >
1.41117e-08 1.41117e-08 1.41117e-08 1.41117e-08 1.41117e-08 1.41117e-08 1.41117e-08 1.41117e-08 1.41117e-08 1.41117e-08 1.41117e-08 1.41117e-08 1.41117e-08 1.41117e-08 1.41117e-08 1.41117e-08 1.41117e-08 1.41117e-08 1.41117e-08 1.41117e-08 1.41117e-08 1.41117e-08 1.41117e-08 1.41117e-08 1.41117e-08 1.41117e-08 1.41117e-08 1.41117e-08 1.41117e-08 1.41117e-08 1.41117e-08 1.41117e-08 1.41117e-08 1.41117e-08 1.41117e-08 1.41117e-08 1.41117e-08 1.41117e-08 1.41117e-08 1.41117e-08 1.41117e-08 1.41117e-08 1.41117e-08 1.41117e-08 1.41117e-08 1.41117e-08 1.41117e-08 1.41117e-08 1.41117e-08 1.41117e-08 1.41117e-08 1.41117e-08 1.41117e-08 1.41117e-08 1.41117e-08 1.41117e-08 1.41117e-08 1.41117e-08 1.41117e-08 1.41117e-08 1.41117e-08 1.41117e-08 1.41117e-08 1.41117e-08 1.41117e-08 1.41117e-08 1.41117e-08 1.41117e-08 1.41117e-08 
</DataArray>
<DataArray type="Float32" Name="Radius" NumberOfComponents="1" >
0.00015 0.00015 0.00015 0.00015 0.00015 0.00015 0.00015 0.00015 0.00015 0.00015 0.00015 0.00015 0.00015 0.00015 0.00015 0.00015 0.00015 0.00015 0.00015 0.00015 0.00015 0.00015 0.00015 0.00015 0.00015 0.00015 0.00015 0.00015 0.00015 0.00015 0.00015 0.00015 0.00015 0.00015 0.00015 0.00015 0.00015 0.00015 0.00015 0.00015 0.00015 0.00015 0.00015 0.00015 0.00015 0.00015 0.00015 0.00015 0.00015 0.00015 0.00015 0.00015 0.00015 0.00015 0.00015 0.00015 0.00015 0.00015 0.00015 0.00015 0.00015 0.00015 0.00015 0.00015 0.00015 0.00015 0.00015 0.00015 0.00015 
</DataArray>
<DataArray type="Float32" Name="Velocity" NumberOfComponents="3" >
-0.00270764 -0.000857626 -0.0228064 0.00191596 -0.000579998 -0.0223165 0.00119772 -0.000843837 -0.0202751 0.000183044 -0.000897609 -0.0194426 -0.00127017 -0.000828081 -0.0201879 -0.00183814 -0.000798499 -0.0211545 0.000852469 -0.000635256 -0.019939 0.000907394 0.000894005 -0.0200321 -0.000767557 -0.000686218 -0.0197987 -0.00210233 0.000863389 -0.0215782 -0.0023389 -0.000838798 -0.0220356 0.00221812 -0.000494536 -0.0239103 -0.0022276 -0.000591687 -0.0236744 -0.00171727 -0.000820346 -0.0208136 -0.000311917 -0.000870134 -0.0195374 0.00223716 -0.000543576 -0.023775 0.00229417 -0.000510471 -0.0240587 0.00214954 -0.000598107 -0.0229733 -0.00312062 0.000849036 -0.0251555 -0.00220255 -0.000667147 -0.023226 0.00170923 -0.000637808 -0.0214226 0.00143238 -0.000637286 -0.020881 -0.00285788 0.000909095 -0.0235813 -0.00247869 0.000395961 -0.0252093 0.00225569 -0.000618979 -0.0231828 0.000386439 -0.000753066 -0.0195917 0.00245516 -0.000563159 -0.024302 -0.00274197 -0.000841045 -0.0232169 -0.00171903 0.000690921 -0.021607 0.00202422 -0.00065129 -0.0222006 0.00260262 0.000581821 -0.0249788 -0.00184919 0.000702245 -0.0219214 -0.00255256 0.000679551 -0.0246356 0.00218935 -0.000656111 -0.0226826 -0.000750437 0.000802276 -0.0199339 0.00221658 0.000721515 -0.0225938 0.00277534 -0.00024378 -0.0258324 0.00285252 0.000169592 -0.0263529 -0.00277509 -0.000486745 -0.0256537 0.00274393 0.000686033 -0.0248826 0.00288564 0.000128555 -0.0264042 0.000250976 -0.000821188 -0.0195341 -0.00246657 0.000773742 -0.0234112 0.00267205 0.000733763 -0.0242994 -0.00266349 0.000781546 -0.0240764 0.00172006 0.000745049 -0.0213445 0.00285853 -0.000438459 -0.0256782 -0.00253292 0.000797529 -0.0234648 -0.00195262 -0.000774477 -0.0216734 0.00274321 0.000752099 -0.0243759 -0.00152706 0.000789988 -0.0209851 0.00286746 -0.000603214 -0.0251643 -0.00168188 -0.000757722 -0.0210418 -0.00297847 -0.000577612 -0.0257693 -0.00282628 -0.00076394 -0.0244901 0.000428206 -0.000855449 -0.0196296 0.00262419 -0.000734371 -0.0235241 0.00295738 -0.000739914 -0.0247122 -0.00252074 0.000858658 -0.022908 0.00272598 -0.000752797 -0.0237272 -0.0025178 -0.000803367 -0.022921 0.00273634 -0.000745951 -0.0238365 0.00216206 -0.000768607 -0.0220415 -0.00243499 0.000905543 -0.0221801 -0.00317122 0.000464251 -0.0266523 -0.00309233 -0.000640268 -0.0257517 0.00308787 -0.000405646 -0.0261737 -0.00114506 0.000983111 -0.0200298 0.000452191 -0.000942962 -0.0194713 
</DataArray>
<DataArray type="Float32" Name="Force" NumberOfComponents="3" >
-8.26278e-11 -1.22445e-11 8.82275e-11 5.11203e-11 -1.10749e-11 4.21083e-11 2.52954e-11 -9.61394e-12 1.50987e-10 -4.84348e-13 -9.06104e-12 1.80767e-10 -3.24355e-11 -7.17911e-12 1.49907e-10 -5.09096e-11 -9.35619e-12 1.24746e-10 1.96389e-11 -1.13673e-11 1.06699e-10 1.95784e-11 8.43666e-12 1.55339e-10 -2.43165e-11 -9.49306e-12 1.10171e-10 -6.64572e-11 1.84523e-11 1.25605e-10 -6.65039e-11 -8.70804e-12 1.12908e-10 6.42064e-11 -1.15072e-11 7.85198e-12 -6.58269e-11 -7.93337e-12 1.58126e-11 -4.69941e-11 -7.43334e-12 1.3707e-10 -1.23022e-11 -8.73858e-12 1.70904e-10 6.19703e-11 -1.17508e-11 2.12107e-11 6.59089e-11 -1.20271e-11 8.91787e-12 5.69685e-11 -1.18067e-11 4.17478e-11 -9.86964e-11 2.12787e-11 2.04636e-11 -6.25199e-11 -1.0348e-11 3.66295e-11 4.37781e-11 -1.14723e-11 7.46404e-11 3.76921e-11 -1.1312e-11 8.81903e-11 -8.81246e-11 1.88442e-11 7.6099e-11 -7.48753e-11 1.2912e-11 -2.04947e-11 5.9974e-11 -1.22404e-11 4.28365e-11 5.88069e-12 -1.43955e-11 1.36481e-10 6.78776e-11 -1.4358e-11 1.63739e-11 -8.12152e-11 -1.40165e-11 7.69825e-11 -4.51973e-11 1.08558e-11 8.58492e-11 5.26861e-11 -1.22873e-11 6.56703e-11 7.2208e-11 1.37593e-11 7.95646e-12 -4.74544e-11 1.36121e-11 8.62692e-11 -7.49819e-11 2.02559e-11 1.34832e-11 5.86231e-11 -1.35154e-11 5.48816e-11 -1.66425e-11 1.00834e-11 1.3078e-10 5.53391e-11 1.54839e-11 7.92432e-11 7.8443e-11 -5.79605e-12 -1.26622e-11 8.20349e-11 4.24743e-12 -1.58676e-11 -8.63428e-11 -1.17927e-11 -1.6827e-11 7.43573e-11 1.61385e-11 2.79043e-11 8.3334e-11 3.25684e-12 -1.66226e-11 5.68807e-13 -1.3929e-11 1.55733e-10 -7.29061e-11 1.72324e-11 5.07817e-11 7.34103e-11 1.61389e-11 4.26659e-11 -7.57636e-11 2.00709e-11 4.38213e-11 4.2126e-11 1.09435e-11 1.10608e-10 8.05768e-11 -1.15186e-11 -3.96414e-13 -7.58111e-11 1.82832e-11 5.60148e-11 -5.51968e-11 -1.07508e-11 9.99297e-11 7.60324e-11 1.70042e-11 4.43948e-11 -3.75384e-11 9.73168e-12 1.2597e-10 8.2322e-11 -1.45016e-11 1.17323e-11 -4.74222e-11 -1.26415e-11 1.18788e-10 -9.11272e-11 -1.56834e-11 -5.44814e-12 -8.24727e-11 -1.6766e-11 3.26373e-11 7.02066e-12 -1.09782e-11 1.63334e-10 6.93421e-11 -1.6708e-11 6.17027e-11 8.22644e-11 -1.7067e-11 3.96993e-11 -7.45179e-11 1.87474e-11 8.37579e-11 7.33129e-11 -1.68431e-11 6.01812e-11 -7.30598e-11 -1.26782e-11 7.47247e-11 7.44705e-11 -1.69307e-11 5.57991e-11 5.61764e-11 -1.56895e-11 9.27548e-11 -7.65246e-11 1.79894e-11 1.17127e-10 -1.01589e-10 1.33382e-11 -2.52184e-11 -9.40625e-11 -1.77012e-11 1.30487e-12 8.93383e-11 -1.12713e-11 -5.61519e-12 -4.12459e-11 2.1081e-11 1.82119e-10 4.36505e-12 -7.96146e-12 1.97446e-10 
</DataArray>
<DataArray type="Float32" Name="Active" NumberOfComponents="1" >
1 1 1 1 1 1 1 1 1 1 1 1 1 1 1 1 1 1 1 1 1 1 1 1 1 1 1 1 1 1 1 1 1 1 1 1 1 1 1 1 1 1 1 1 1 1 1 1 1 1 1 1 1 1 1 1 1 1 1 1 1 1 1 1 1 1 1 1 1 
</DataArray>
</PointData>
<CellData /> 
<Cells>
<DataArray type="Int32" Name="connectivity" format="ascii">
0 1 2 3 4 5 6 7 8 9 10 11 12 13 14 15 16 17 18 19 20 21 22 23 24 25 26 27 28 29 30 31 32 33 34 35 36 37 38 39 40 41 42 43 44 45 46 47 48 49 50 51 52 53 54 55 56 57 58 59 60 61 62 63 64 65 66 67 68 </DataArray>
<DataArray type="Int32" Name="offsets" format="ascii">
1 2 3 4 5 6 7 8 9 10 11 12 13 14 15 16 17 18 19 20 21 22 23 24 25 26 27 28 29 30 31 32 33 34 35 36 37 38 39 40 41 42 43 44 45 46 47 48 49 50 51 52 53 54 55 56 57 58 59 60 61 62 63 64 65 66 67 68 69 </DataArray>
<DataArray type="UInt8" Name="types" format="ascii">
1 1 1 1 1 1 1 1 1 1 1 1 1 1 1 1 1 1 1 1 1 1 1 1 1 1 1 1 1 1 1 1 1 1 1 1 1 1 1 1 1 1 1 1 1 1 1 1 1 1 1 1 1 1 1 1 1 1 1 1 1 1 1 1 1 1 1 1 1 </DataArray>
</Cells>
<Points>
<DataArray type="Float32" Name="Position" NumberOfComponents="3" >
-0.00503737 0.00578513 0.0169336 0.00565778 0.00555235 0.0220653 0.00222108 0.00681428 0.0186107 0.000444823 0.00701394 0.0188839 -0.00215431 0.00684686 0.0186734 -0.00332214 0.00657045 0.0184539 0.00208396 0.00717131 0.0227589 0.00177989 -0.00689703 0.0188888 -0.00183757 0.00721684 0.0226511 -0.00373505 -0.00636806 0.0176032 -0.00424799 0.00617946 0.0174652 0.00742342 0.00355133 0.0211178 -0.00701259 0.00419178 0.0210652 -0.00291508 0.00664179 0.0180057 -0.000413855 0.00703245 0.019177 0.00710616 0.00402199 0.020916 0.0074308 0.00354825 0.0207126 0.00622444 0.00504037 0.0209407 -0.00704566 -0.00414408 0.0169969 -0.00617264 0.00507655 0.0207992 0.00436584 0.00634839 0.0214567 0.00343279 0.00672913 0.02162 -0.00562323 -0.0054083 0.0170094 -0.00813053 -0.00206728 0.0199047 0.0062809 0.00497524 0.0203563 0.000842457 0.00724198 0.0216582 0.00733354 0.00370982 0.0198163 -0.00537221 0.00559698 0.0173061 -0.00394671 -0.00646524 0.0206871 0.00519593 0.00583835 0.0205003 0.00763901 -0.00315438 0.0193004 -0.0042656 -0.00631251 0.0204477 -0.00727523 -0.00381589 0.0195226 0.00560979 0.00554069 0.0202618 -0.00148675 -0.00712363 0.0210172 0.00529006 -0.00572622 0.0194912 0.0083964 0.00126916 0.0184084 0.00845227 -0.000591721 0.0180749 -0.00807318 0.00241795 0.0184253 0.00728939 -0.00376782 0.0185458 0.00847025 -0.000409987 0.0179194 0.000559204 0.00716168 0.0205361 -0.0059223 -0.00525647 0.019081 0.00668931 -0.00449318 0.0185412 -0.00646243 -0.00477945 0.0187127 0.00375206 -0.00648632 0.019615 0.00812123 0.00227925 0.0180614 -0.00586706 -0.00528724 0.0186994 -0.00400414 0.00638403 0.0193164 0.0066893 -0.00449455 0.0181916 -0.00300336 -0.00671355 0.0194859 0.00766976 0.00325841 0.0179781 -0.00324985 0.00665108 0.0193308 -0.00790617 0.00283398 0.0176257 -0.0067015 0.00453172 0.0180315 0.000870773 0.00706618 0.0197319 0.00610103 0.00510667 0.0182729 0.00698273 0.0042246 0.0173059 -0.00517875 -0.00574359 0.0180694 0.00620074 0.00500959 0.0178275 -0.00522871 0.00571386 0.0181456 0.00630503 0.00491521 0.0178471 0.0045693 0.00609891 0.0186088 -0.00419251 -0.00615125 0.0169948 -0.00833624 -0.00178777 0.0169267 -0.00779647 0.00309868 0.0172152 0.00827031 0.00193265 0.0170431 -0.00171318 -0.00676397 0.017289 0.000877095 0.00682331 0.017199 
</DataArray>
</Points>
</Piece>
</UnstructuredGrid>
</VTKFile>
