<?xml version="1.0"?>
<VTKFile type="UnstructuredGrid" version="0.1" byte_order="LittleEndian">
<UnstructuredGrid>
<Piece NumberOfPoints="34" NumberOfCells="34">
<PointData Vectors="Particles">
<DataArray type="Float32" Name="Mass" NumberOfComponents="1" >
1.41117e-08 1.41117e-08 1.41117e-08 1.41117e-08 1.41117e-08 1.41117e-08 1.41117e-08 1.41117e-08 1.41117e-08 1.41117e-08 1.41117e-08 1.41117e-08 1.41117e-08 1.41117e-08 1.41117e-08 1.41117e-08 1.41117e-08 1.41117e-08 1.41117e-08 1.41117e-08 1.41117e-08 1.41117e-08 1.41117e-08 1.41117e-08 1.41117e-08 1.41117e-08 1.41117e-08 1.41117e-08 1.41117e-08 1.41117e-08 1.41117e-08 1.41117e-08 1.41117e-08 1.41117e-08 
</DataArray>
<DataArray type="Float32" Name="Radius" NumberOfComponents="1" >
0.00015 0.00015 0.00015 0.00015 0.00015 0.00015 0.00015 0.00015 0.00015 0.00015 0.00015 0.00015 0.00015 0.00015 0.00015 0.00015 0.00015 0.00015 0.00015 0.00015 0.00015 0.00015 0.00015 0.00015 0.00015 0.00015 0.00015 0.00015 0.00015 0.00015 0.00015 0.00015 0.00015 0.00015 
</DataArray>
<DataArray type="Float32" Name="Velocity" NumberOfComponents="3" >
0.0158315 7.54246e-05 -0.0264888 0.0143494 0.000172152 -0.023741 0.0165633 -0.000528395 -0.0300343 0.0178722 -8.81275e-05 -0.030608 0.00255227 0.000109653 -0.0044651 0.0080394 0.000265759 -0.0131953 0.0179981 -6.24065e-05 -0.0308193 0.0113162 0.000246265 -0.0186399 0.020242 -0.000174652 -0.0356745 0.0127689 0.000209877 -0.0211323 0.00946342 0.00026142 -0.0156175 0.0155914 -0.000243366 -0.026822 0.00234621 5.51608e-05 -0.00412023 0.0175292 -0.000437091 -0.0341795 0.0151805 -5.34518e-05 -0.0255118 0.00685899 0.000178728 -0.0115412 0.0177808 -0.000502465 -0.03304 0.0088945 0.000419577 -0.0144481 0.00864404 0.000132422 -0.0147255 0.00711202 0.000357232 -0.0116245 0.0144365 0.000146239 -0.0241051 0.0160217 5.2248e-05 -0.0271584 0 0 0 0.00255127 0.00012923 -0.00441954 0.0160827 -0.000113767 -0.027258 0.00723768 5.83656e-05 -0.0124808 0.0117268 0.00020324 -0.0195277 0.00330541 9.4935e-05 -0.00585306 0.00923102 0.000236185 -0.015391 0.0180782 -0.000366135 -0.032188 0.00984382 0.000326587 -0.0160798 0.00651118 0.000264712 -0.0107328 0.0113622 0.000270948 -0.018586 0.0199636 -0.000215684 -0.0367218 
</DataArray>
<DataArray type="Float32" Name="Force" NumberOfComponents="3" >
1.26007e-11 3.34162e-12 -3.35623e-12 -5.52148e-12 -5.61831e-14 1.72873e-11 1.85169e-10 1.9765e-11 -1.35272e-10 4.50296e-11 5.09195e-12 -4.58194e-11 -5.11645e-11 -5.02876e-12 9.4868e-11 -4.41031e-11 -7.49444e-12 7.99202e-11 2.89595e-11 -7.93961e-13 -3.31255e-11 -3.1607e-11 -6.93776e-12 5.19131e-11 6.1477e-11 2.26336e-12 -6.47902e-11 -2.81332e-11 -7.75758e-12 3.74112e-11 -4.33513e-11 -5.50061e-12 7.14479e-11 1.03817e-10 9.47666e-12 -7.27619e-11 -2.12061e-11 -4.6159e-12 4.61605e-11 2.75404e-10 1.43755e-11 -1.99641e-10 6.57042e-11 1.60417e-12 -4.19681e-11 -4.51428e-11 -9.21557e-12 7.38995e-11 2.17432e-10 1.9539e-11 -1.6307e-10 -3.30178e-11 -1.49963e-11 6.72134e-11 -4.62672e-11 -1.35467e-11 6.04103e-11 -3.61062e-11 -1.04293e-11 7.76471e-11 -2.55865e-11 -1.06007e-11 1.99727e-11 -1.99392e-11 -1.20258e-11 8.85752e-12 -1.56411e-10 -3.71394e-12 3.75194e-10 -2.79592e-11 -1.78035e-12 5.20867e-11 6.92855e-11 9.53571e-12 -4.87987e-11 -4.19702e-11 -9.95602e-12 5.69932e-11 -3.90399e-11 -1.1794e-11 4.94266e-11 -3.46153e-11 3.58704e-12 6.47987e-11 -4.22875e-11 -9.57601e-12 6.40219e-11 1.44167e-10 1.83711e-11 -1.11721e-10 -2.63056e-11 -1.44031e-11 6.28004e-11 -4.51753e-11 -8.90342e-12 8.45489e-11 -1.91713e-11 -7.58576e-12 5.02117e-11 1.80713e-10 1.04376e-11 -1.38221e-10 
</DataArray>
<DataArray type="Float32" Name="Active" NumberOfComponents="1" >
1 1 1 1 1 1 1 1 1 1 1 1 1 1 1 1 1 1 1 1 1 1 0 1 1 1 1 1 1 1 1 1 1 1 
</DataArray>
</PointData>
<CellData /> 
<Cells>
<DataArray type="Int32" Name="connectivity" format="ascii">
0 1 2 3 4 5 6 7 8 9 10 11 12 13 14 15 16 17 18 19 20 21 22 23 24 25 26 27 28 29 30 31 32 33 </DataArray>
<DataArray type="Int32" Name="offsets" format="ascii">
1 2 3 4 5 6 7 8 9 10 11 12 13 14 15 16 17 18 19 20 21 22 23 24 25 26 27 28 29 30 31 32 33 34 </DataArray>
<DataArray type="UInt8" Name="types" format="ascii">
1 1 1 1 1 1 1 1 1 1 1 1 1 1 1 1 1 1 1 1 1 1 1 1 1 1 1 1 1 1 1 1 1 1 </DataArray>
</Cells>
<Points>
<DataArray type="Float32" Name="Position" NumberOfComponents="3" >
0.0156021 0.00430999 -0.0108115 0.0149916 0.00469323 -0.0105909 0.0140355 0.00325922 -0.00548873 0.0168473 0.0035193 -0.0121305 0.0109541 0.00435628 -0.0118923 0.0122752 0.00528762 -0.00977526 0.0174365 0.00348953 -0.0134234 0.0140104 0.00508905 -0.0108231 0.0188596 0.00213808 -0.0153624 0.0150247 0.00488189 -0.0118249 0.0133957 0.00516831 -0.0109969 0.0135256 0.00415819 -0.00571987 0.0111938 0.00412373 -0.0127117 0.0150097 0.00138756 -0.00636828 0.0135909 0.00447566 -0.00657996 0.0134897 0.00486718 -0.0133287 0.0151095 0.00231595 -0.00708531 0.0108729 0.00556023 -0.00613563 0.014911 0.00478233 -0.0148795 0.0107239 0.00548304 -0.00730959 0.0161969 0.00456416 -0.0131387 0.017443 0.0041 -0.0147184 0.0111411 0.00151719 -0.0148618 0.0104703 0.00448155 -0.0109636 0.0145476 0.00414753 -0.0080131 0.0146945 0.0045719 -0.0156721 0.0150992 0.00491291 -0.0128026 0.0128823 0.00384102 -0.0154847 0.0140173 0.00503756 -0.0124907 0.0156457 0.00287639 -0.00876388 0.0120131 0.00540244 -0.00776497 0.0114619 0.00528227 -0.00931173 0.0129675 0.00522806 -0.00856056 0.0172323 0.00102483 -0.0113734 
</DataArray>
</Points>
</Piece>
</UnstructuredGrid>
</VTKFile>
