<?xml version="1.0"?>
<VTKFile type="UnstructuredGrid" version="0.1" byte_order="LittleEndian">
<UnstructuredGrid>
<Piece NumberOfPoints="1" NumberOfCells="1">
<PointData Vectors="Particles">
<DataArray type="Float32" Name="Mass" NumberOfComponents="1" >
1.41117e-08 
</DataArray>
<DataArray type="Float32" Name="Radius" NumberOfComponents="1" >
0.00015 
</DataArray>
<DataArray type="Float32" Name="Velocity" NumberOfComponents="3" >
0.0102516 4.20875e-05 -0.0157968 
</DataArray>
<DataArray type="Float32" Name="Force" NumberOfComponents="3" >
1.83719e-11 -3.19e-12 -2.04487e-11 
</DataArray>
<DataArray type="Float32" Name="Active" NumberOfComponents="1" >
1 
</DataArray>
</PointData>
<CellData /> 
<Cells>
<DataArray type="Int32" Name="connectivity" format="ascii">
0 </DataArray>
<DataArray type="Int32" Name="offsets" format="ascii">
1 </DataArray>
<DataArray type="UInt8" Name="types" format="ascii">
1 </DataArray>
</Cells>
<Points>
<DataArray type="Float32" Name="Position" NumberOfComponents="3" >
0.0110872 0.00592485 -0.00188455 
</DataArray>
</Points>
</Piece>
</UnstructuredGrid>
</VTKFile>
