<?xml version="1.0"?>
<VTKFile type="UnstructuredGrid" version="0.1" byte_order="LittleEndian">
<UnstructuredGrid>
<Piece NumberOfPoints="1" NumberOfCells="1">
<PointData Vectors="Particles">
<DataArray type="Float32" Name="Mass" NumberOfComponents="1" >
1.41117e-08 
</DataArray>
<DataArray type="Float32" Name="Radius" NumberOfComponents="1" >
0.00015 
</DataArray>
<DataArray type="Float32" Name="Velocity" NumberOfComponents="3" >
0.00566669 -6.61826e-06 -0.00927225 
</DataArray>
<DataArray type="Float32" Name="Force" NumberOfComponents="3" >
-7.35897e-12 -1.50413e-12 -4.48231e-12 
</DataArray>
<DataArray type="Float32" Name="Active" NumberOfComponents="1" >
1 
</DataArray>
</PointData>
<CellData /> 
<Cells>
<DataArray type="Int32" Name="connectivity" format="ascii">
0 </DataArray>
<DataArray type="Int32" Name="offsets" format="ascii">
1 </DataArray>
<DataArray type="UInt8" Name="types" format="ascii">
1 </DataArray>
</Cells>
<Points>
<DataArray type="Float32" Name="Position" NumberOfComponents="3" >
0.0158228 -0.00670181 -0.0106398 
</DataArray>
</Points>
</Piece>
</UnstructuredGrid>
</VTKFile>
