<?xml version="1.0"?>
<VTKFile type="UnstructuredGrid" version="0.1" byte_order="LittleEndian">
<UnstructuredGrid>
<Piece NumberOfPoints="102" NumberOfCells="102">
<PointData Vectors="Particles">
<DataArray type="Float32" Name="Mass" NumberOfComponents="1" >
1.41117e-08 1.41117e-08 1.41117e-08 1.41117e-08 1.41117e-08 1.41117e-08 1.41117e-08 1.41117e-08 1.41117e-08 1.41117e-08 1.41117e-08 1.41117e-08 1.41117e-08 1.41117e-08 1.41117e-08 1.41117e-08 1.41117e-08 1.41117e-08 1.41117e-08 1.41117e-08 1.41117e-08 1.41117e-08 1.41117e-08 1.41117e-08 1.41117e-08 1.41117e-08 1.41117e-08 1.41117e-08 1.41117e-08 1.41117e-08 1.41117e-08 1.41117e-08 1.41117e-08 1.41117e-08 1.41117e-08 1.41117e-08 1.41117e-08 1.41117e-08 1.41117e-08 1.41117e-08 1.41117e-08 1.41117e-08 1.41117e-08 1.41117e-08 1.41117e-08 1.41117e-08 1.41117e-08 1.41117e-08 1.41117e-08 1.41117e-08 1.41117e-08 1.41117e-08 1.41117e-08 1.41117e-08 1.41117e-08 1.41117e-08 1.41117e-08 1.41117e-08 1.41117e-08 1.41117e-08 1.41117e-08 1.41117e-08 1.41117e-08 1.41117e-08 1.41117e-08 1.41117e-08 1.41117e-08 1.41117e-08 1.41117e-08 1.41117e-08 1.41117e-08 1.41117e-08 1.41117e-08 1.41117e-08 1.41117e-08 1.41117e-08 1.41117e-08 1.41117e-08 1.41117e-08 1.41117e-08 1.41117e-08 1.41117e-08 1.41117e-08 1.41117e-08 1.41117e-08 1.41117e-08 1.41117e-08 1.41117e-08 1.41117e-08 1.41117e-08 1.41117e-08 1.41117e-08 1.41117e-08 1.41117e-08 1.41117e-08 1.41117e-08 1.41117e-08 1.41117e-08 1.41117e-08 1.41117e-08 1.41117e-08 1.41117e-08 
</DataArray>
<DataArray type="Float32" Name="Radius" NumberOfComponents="1" >
0.00015 0.00015 0.00015 0.00015 0.00015 0.00015 0.00015 0.00015 0.00015 0.00015 0.00015 0.00015 0.00015 0.00015 0.00015 0.00015 0.00015 0.00015 0.00015 0.00015 0.00015 0.00015 0.00015 0.00015 0.00015 0.00015 0.00015 0.00015 0.00015 0.00015 0.00015 0.00015 0.00015 0.00015 0.00015 0.00015 0.00015 0.00015 0.00015 0.00015 0.00015 0.00015 0.00015 0.00015 0.00015 0.00015 0.00015 0.00015 0.00015 0.00015 0.00015 0.00015 0.00015 0.00015 0.00015 0.00015 0.00015 0.00015 0.00015 0.00015 0.00015 0.00015 0.00015 0.00015 0.00015 0.00015 0.00015 0.00015 0.00015 0.00015 0.00015 0.00015 0.00015 0.00015 0.00015 0.00015 0.00015 0.00015 0.00015 0.00015 0.00015 0.00015 0.00015 0.00015 0.00015 0.00015 0.00015 0.00015 0.00015 0.00015 0.00015 0.00015 0.00015 0.00015 0.00015 0.00015 0.00015 0.00015 0.00015 0.00015 0.00015 0.00015 
</DataArray>
<DataArray type="Float32" Name="Velocity" NumberOfComponents="3" >
0.0115602 3.70036e-05 -0.0218248 0.0139779 2.98633e-05 -0.0262567 0.00928473 4.13388e-05 -0.0177114 0.013375 1.74686e-05 -0.025115 0.0148953 1.85784e-05 -0.0279127 0.015553 1.83708e-05 -0.0291571 0.00922638 1.51942e-05 -0.0176341 0.0125871 2.04492e-06 -0.0236747 0.0155139 4.38628e-05 -0.029002 0.0114566 6.45184e-05 -0.0216022 0.0175127 2.1586e-05 -0.0328658 0.0170265 3.3293e-05 -0.0318745 0.00971988 -3.22961e-05 -0.0185264 0.0149648 -3.03249e-05 -0.0279991 0.0172604 3.03591e-05 -0.0323297 0.0174881 -4.9043e-06 -0.0328413 0.0165629 -2.51033e-05 -0.0310489 0.0169914 4.13083e-05 -0.0317678 0.00581582 3.73634e-05 -0.0115486 0.0126322 -4.18185e-05 -0.0237771 0.0149911 -4.69201e-05 -0.0280326 0.00615413 2.75197e-05 -0.0121413 0.00877831 7.82215e-05 -0.0167963 0.0173831 3.76633e-05 -0.0325251 0.0178381 -2.44897e-05 -0.033541 0.0139797 9.80103e-05 -0.0260502 0.0173312 4.97233e-05 -0.0323977 0.00965778 9.47372e-05 -0.0183158 0.0147611 -9.65694e-05 -0.0275823 0.00498487 3.32513e-05 -0.0100846 0.0137968 -0.00011931 -0.0257914 0.0180348 -6.68284e-05 -0.033961 0.0170853 -0.000115937 -0.0320118 0.0115402 -0.000121874 -0.0217065 0.018793 3.11522e-05 -0.0355833 0.0140932 0.000178008 -0.0260795 0.0187665 -6.88996e-05 -0.0357647 0.00966773 -0.00012662 -0.0183575 0.0130248 0.000198401 -0.0241114 0.0156927 -0.000188562 -0.0291919 0.0190932 -5.52908e-05 -0.0368602 0.0174141 -0.000155458 -0.0327335 0.0148049 -0.000202253 -0.0275069 0.0161539 0.00019145 -0.0298749 0.0192165 -3.79774e-05 -0.0374369 0.0115649 -0.000168873 -0.0216197 0.00622058 9.10211e-05 -0.0122374 0.0189651 -5.8865e-05 -0.0368294 0.0175268 -0.000173315 -0.0330756 0.0189968 -4.68844e-05 -0.0373114 0.00478574 -2.83279e-05 -0.00978555 0.00820311 -0.00013188 -0.0157568 0.0190313 -3.64001e-05 -0.0379048 0.0178833 0.000115593 -0.0338165 0.0120202 0.000268977 -0.0221852 0.0188321 -4.66857e-05 -0.0379478 0.0184578 -3.94663e-05 -0.0366979 0.0185038 -5.80944e-05 -0.037036 0.00844092 0.000188724 -0.0159688 0.0154192 -0.00031749 -0.0286938 0.0121789 0.000327108 -0.022465 0.017367 0.000151675 -0.0328371 0.0164196 -0.000287715 -0.0307513 0.0185065 -6.57787e-05 -0.0376136 0.0137153 0.000344949 -0.0252398 0.00622584 -9.85258e-05 -0.0123267 0.0178376 8.22202e-05 -0.0342594 0.0181819 -7.89643e-05 -0.0358256 0.0185264 -5.91013e-05 -0.0378476 0.0179402 -0.000115342 -0.0349787 0.0183681 -1.40482e-05 -0.0377107 0.01387 0.000358637 -0.0255283 0.0109742 -0.000264189 -0.0204978 0.0181821 -7.29239e-06 -0.0370783 0.0180418 -7.62657e-05 -0.0363223 0.00433192 5.73305e-05 -0.00894192 0.0154769 0.000304768 -0.0286276 0.0174615 -0.000160049 -0.0338143 0.0176154 -0.00010795 -0.0346087 0.0180914 -8.84515e-05 -0.0374826 0.0163181 0.000240448 -0.0305153 0.0111622 -0.000305095 -0.0207986 0.0158773 0.0002842 -0.0295395 0.0174905 -2.362e-05 -0.0347233 0.0172902 -0.000101219 -0.0341678 0.00429667 6.41696e-05 -0.00885241 0.0116552 -0.00036878 -0.0216758 0.0168592 2.03797e-05 -0.0332529 0.0161266 0.000236936 -0.0304917 0.0166372 -0.000202592 -0.0325073 0.0103877 -0.000340682 -0.0194217 0.0154575 0.000326841 -0.0289321 0.0165236 -1.42553e-05 -0.0337639 0.0167625 -0.000206798 -0.0357726 0.0168045 -0.000191097 -0.0366269 0.00386079 -5.47151e-05 -0.00816289 0.0155105 -0.000369244 -0.0295612 0.0165899 -0.000131335 -0.0369686 0.00890296 0.000346828 -0.0167681 0.0162339 -4.59076e-05 -0.0326871 0.0162917 -0.000170611 -0.0339625 0.0163998 -0.000235446 -0.0359902 
</DataArray>
<DataArray type="Float32" Name="Force" NumberOfComponents="3" >
-1.07582e-10 -2.1567e-12 2.41792e-10 -9.21113e-11 -4.36037e-13 2.09871e-10 -1.12193e-10 7.54646e-12 2.88119e-10 -9.0583e-11 -1.34968e-11 2.24327e-10 -8.30963e-11 -7.52794e-12 2.0599e-10 -7.80877e-11 4.52669e-12 2.09983e-10 -1.22599e-10 8.48917e-12 2.99165e-10 -9.93077e-11 1.16759e-11 2.66626e-10 -7.01379e-11 -1.0353e-11 2.15619e-10 -1.04904e-10 -7.29905e-12 2.64889e-10 -5.10229e-11 6.77918e-13 1.97289e-10 -5.80804e-11 -3.16783e-12 1.98629e-10 -1.22801e-10 9.63841e-12 2.97666e-10 -8.54419e-11 1.41143e-11 2.39615e-10 -5.47562e-11 -2.04301e-12 1.95472e-10 -4.89973e-11 6.07692e-12 1.96385e-10 -6.43685e-11 1.0385e-11 2.14139e-10 -6.01437e-11 -5.10344e-12 2.00099e-10 -1.39144e-10 2.42563e-12 3.09926e-10 -1.02826e-10 1.48772e-11 2.67708e-10 -8.64031e-11 1.5173e-11 2.39839e-10 -1.36082e-10 5.42944e-12 3.08034e-10 -1.21471e-10 -6.2164e-12 2.87596e-10 -5.18893e-11 -4.31304e-12 1.96759e-10 -3.93718e-11 6.19762e-12 1.93139e-10 -9.48854e-11 -1.12237e-11 2.38707e-10 -5.19356e-11 -5.78903e-12 2.00261e-10 -1.19955e-10 -7.67079e-12 2.83776e-10 -8.0087e-11 1.61412e-11 2.41263e-10 -1.33647e-10 -2.85164e-12 3.00399e-10 -9.672e-11 1.31395e-11 2.62683e-10 -1.93839e-11 7.59659e-12 1.86049e-10 -3.71935e-11 1.05639e-11 2.00517e-10 -1.1134e-10 1.06685e-11 2.77451e-10 2.57171e-11 -1.39233e-12 1.41799e-10 -9.37559e-11 -1.04138e-11 2.47859e-10 3.82493e-11 5.10167e-12 1.37553e-10 -1.26575e-10 8.36641e-12 2.98829e-10 -1.02482e-10 -1.02982e-11 2.56322e-10 -5.72913e-11 1.40219e-11 2.19103e-10 8.03077e-11 2.47474e-12 1.10817e-10 -8.38426e-12 1.09223e-11 1.79508e-10 -6.90615e-11 1.47072e-11 2.2948e-10 -3.86338e-11 -1.22054e-11 1.96513e-10 1.07919e-10 1.14193e-12 8.87432e-11 -1.13036e-10 1.25289e-11 2.8372e-10 -1.28052e-10 -5.56689e-12 2.92882e-10 1.01588e-10 9.59257e-13 9.19554e-11 2.00299e-11 9.72602e-12 1.54254e-10 1.34306e-10 -2.85063e-13 6.52031e-11 -1.37322e-10 4.16879e-12 3.10009e-10 -1.30872e-10 9.42466e-12 3.07633e-10 1.73109e-10 1.61992e-12 3.45299e-11 5.46443e-11 -1.93398e-12 1.23326e-10 -9.5542e-11 -2.06142e-11 2.64008e-10 1.98302e-10 2.8883e-12 1.57934e-11 1.69963e-10 -3.00032e-12 3.74894e-11 1.90763e-10 7.47102e-12 1.74007e-11 -1.36113e-10 -9.49849e-12 3.02517e-10 -3.25946e-11 1.51234e-11 2.02163e-10 -9.0497e-11 -1.94529e-11 2.6562e-10 6.17386e-11 3.46001e-13 1.16291e-10 7.05139e-12 1.20437e-11 1.68716e-10 2.18239e-10 5.07565e-12 -1.02859e-12 -6.44824e-11 -1.50878e-11 2.34946e-10 -1.38959e-10 7.69561e-12 3.17888e-10 1.05422e-10 4.32453e-12 8.0488e-11 1.49923e-10 -3.10934e-12 5.31656e-11 2.26728e-10 3.57662e-12 -6.23306e-12 1.24986e-10 -1.22085e-12 7.26879e-11 2.32124e-10 -3.99681e-12 -9.77203e-12 -6.09632e-11 -1.28927e-11 2.30379e-10 -1.19841e-10 1.5638e-11 2.90492e-10 2.22364e-10 -6.52009e-12 -6.48813e-12 2.11699e-10 9.29508e-12 -6.16232e-12 -1.31302e-10 -2.09035e-12 2.92561e-10 -1.19589e-11 -5.02617e-12 1.75962e-10 1.09998e-10 -1.36052e-12 8.17121e-11 1.43434e-10 -5.56003e-12 5.27901e-11 2.58085e-10 6.39409e-12 -3.57212e-11 3.72657e-11 -4.62502e-12 1.31727e-10 -1.12839e-10 1.81889e-11 2.85217e-10 1.5756e-11 -6.55615e-12 1.52746e-10 1.82258e-10 1.00188e-11 1.64853e-11 1.55247e-10 -7.48008e-12 4.47749e-11 -1.2102e-10 -3.35342e-12 2.71636e-10 -9.07468e-11 2.33009e-11 2.73945e-10 1.71835e-10 9.83599e-12 2.29398e-11 7.72094e-11 4.20119e-14 1.00496e-10 1.3826e-10 -5.62414e-12 5.47384e-11 -1.10348e-10 2.09291e-11 2.96131e-10 3.87507e-11 -4.9312e-12 1.3867e-10 2.21436e-10 -1.64679e-11 -7.03203e-12 3.02761e-10 1.66929e-11 -7.76145e-11 3.28098e-10 1.28339e-11 -9.06345e-11 -1.10349e-10 5.52914e-12 2.63572e-10 6.02435e-11 2.98285e-12 1.24694e-10 3.53168e-10 6.59151e-12 -1.07647e-10 -1.27406e-10 -1.38907e-11 3.1216e-10 2.07638e-10 1.68909e-11 -7.40616e-12 2.63567e-10 2.03116e-11 -4.79584e-11 3.3637e-10 1.65267e-11 -1.01537e-10 
</DataArray>
<DataArray type="Float32" Name="Active" NumberOfComponents="1" >
1 1 1 1 1 1 1 1 1 1 1 1 1 1 1 1 1 1 1 1 1 1 1 1 1 1 1 1 1 1 1 1 1 1 1 1 1 1 1 1 1 1 1 1 1 1 1 1 1 1 1 1 1 1 1 1 1 1 1 1 1 1 1 1 1 1 1 1 1 1 1 1 1 1 1 1 1 1 1 1 1 1 1 1 1 1 1 1 1 1 1 1 1 1 1 1 1 1 1 1 1 1 
</DataArray>
</PointData>
<CellData /> 
<Cells>
<DataArray type="Int32" Name="connectivity" format="ascii">
0 1 2 3 4 5 6 7 8 9 10 11 12 13 14 15 16 17 18 19 20 21 22 23 24 25 26 27 28 29 30 31 32 33 34 35 36 37 38 39 40 41 42 43 44 45 46 47 48 49 50 51 52 53 54 55 56 57 58 59 60 61 62 63 64 65 66 67 68 69 70 71 72 73 74 75 76 77 78 79 80 81 82 83 84 85 86 87 88 89 90 91 92 93 94 95 96 97 98 99 100 101 </DataArray>
<DataArray type="Int32" Name="offsets" format="ascii">
1 2 3 4 5 6 7 8 9 10 11 12 13 14 15 16 17 18 19 20 21 22 23 24 25 26 27 28 29 30 31 32 33 34 35 36 37 38 39 40 41 42 43 44 45 46 47 48 49 50 51 52 53 54 55 56 57 58 59 60 61 62 63 64 65 66 67 68 69 70 71 72 73 74 75 76 77 78 79 80 81 82 83 84 85 86 87 88 89 90 91 92 93 94 95 96 97 98 99 100 101 102 </DataArray>
<DataArray type="UInt8" Name="types" format="ascii">
1 1 1 1 1 1 1 1 1 1 1 1 1 1 1 1 1 1 1 1 1 1 1 1 1 1 1 1 1 1 1 1 1 1 1 1 1 1 1 1 1 1 1 1 1 1 1 1 1 1 1 1 1 1 1 1 1 1 1 1 1 1 1 1 1 1 1 1 1 1 1 1 1 1 1 1 1 1 1 1 1 1 1 1 1 1 1 1 1 1 1 1 1 1 1 1 1 1 1 1 1 1 </DataArray>
</Cells>
<Points>
<DataArray type="Float32" Name="Position" NumberOfComponents="3" >
0.0157259 0.000339413 -0.0201399 0.0162875 -6.28811e-05 -0.0199205 0.0148165 -0.000574702 -0.0194701 0.0159087 0.0011166 -0.0193177 0.0162873 0.000716661 -0.0192807 0.0163638 -0.000380379 -0.0191134 0.0145786 -0.00107293 -0.0189406 0.0153775 -0.00144972 -0.0186354 0.0159744 0.00137828 -0.0180812 0.0149847 0.00168461 -0.0183432 0.0162341 0.000410308 -0.0175152 0.0161132 0.000894062 -0.0174792 0.0143854 -0.00164541 -0.0181447 0.0156147 -0.00162125 -0.0176263 0.0161024 0.000809251 -0.0173137 0.0161573 -0.000412163 -0.0173704 0.0159483 -0.00108922 -0.0174701 0.0159991 0.00115363 -0.0171977 0.0133085 -0.000416 -0.0182081 0.0149711 -0.00191582 -0.0176519 0.0154653 -0.00177006 -0.0172681 0.013335 -0.000927368 -0.0180527 0.0140073 0.00175995 -0.0177855 0.0159534 0.00106106 -0.0168436 0.0159665 -0.00070419 -0.0166898 0.0151473 0.00206341 -0.0170272 0.0157975 0.00129682 -0.0165149 0.0141166 0.00200204 -0.0174427 0.0150096 -0.0020895 -0.0163429 0.012789 0.000734479 -0.0175921 0.0145829 -0.00232463 -0.0159588 0.0153302 -0.00126619 -0.014966 0.0149841 -0.00188596 -0.0147908 0.0139396 -0.00250071 -0.0159085 0.0150969 0.00114345 -0.0136815 0.0142505 0.00266743 -0.014842 0.0148341 -0.00113902 -0.0131177 0.0132911 -0.00260107 -0.0155941 0.0138625 0.00282948 -0.0146265 0.014216 -0.0025573 -0.0137807 0.014559 -0.000875176 -0.0120727 0.0143755 -0.0021061 -0.0130168 0.0139795 -0.00273031 -0.01385 0.0140936 0.00264981 -0.0130458 0.0144218 -0.00040812 -0.0114605 0.0133691 -0.00288983 -0.0145845 0.0124828 0.0022324 -0.0158941 0.014242 -0.00104637 -0.0112262 0.0140053 -0.00221829 -0.0119511 0.0140303 -0.000888476 -0.0105205 0.0121429 -0.00170538 -0.0162204 0.0126202 -0.00272441 -0.0149873 0.0139 2.52696e-05 -0.00987972 0.0137743 0.00225249 -0.0108704 0.0129942 0.00324181 -0.0132393 0.0136319 0.000333608 -0.00908419 0.0134026 -0.00137803 -0.00892123 0.013356 0.00125929 -0.00854446 0.0123421 0.00302309 -0.014098 0.0130412 -0.00307993 -0.0112001 0.0126964 0.0034013 -0.0124458 0.0131961 0.00260909 -0.00970778 0.0130896 -0.00291274 -0.0105002 0.0133257 0.000683156 -0.00826128 0.0127999 0.00338323 -0.0116494 0.0120447 -0.00249541 -0.0149945 0.0131693 0.00233099 -0.00913198 0.0131932 -0.00184167 -0.00880733 0.0133255 0.000431183 -0.00821566 0.0131423 -0.00208829 -0.0089947 0.0131579 -0.000726208 -0.00793781 0.0126776 0.00342633 -0.0112615 0.0123985 -0.00332501 -0.0127124 0.0130292 -0.00116461 -0.00774471 0.0129467 0.00159454 -0.00758339 0.011753 0.00186991 -0.0156288 0.0126987 0.0032837 -0.0100758 0.0128284 -0.00245599 -0.00856111 0.0127492 -0.00225763 -0.00802647 0.0129712 0.000734207 -0.00723667 0.0125811 0.00314093 -0.00895438 0.0121539 -0.00345044 -0.012038 0.012454 0.00328092 -0.00909232 0.0124788 0.0022849 -0.0069775 0.0124009 -0.00242989 -0.00721165 0.0115791 0.00204014 -0.0152492 0.0119404 -0.00358117 -0.0112139 0.0120026 0.00271353 -0.00622043 0.0119065 0.00330092 -0.0072608 0.011858 -0.00292595 -0.0065688 0.0116346 -0.00359287 -0.0113846 0.0116612 0.00353815 -0.0073906 0.0116244 -0.002574 -0.00513779 0.0120103 0.00166524 -0.00483731 0.0121312 0.0011364 -0.00484311 0.0113517 -0.00196024 -0.0151531 0.0114619 -0.00345943 -0.00681925 0.0120868 0.000561048 -0.00452438 0.0113865 0.00362522 -0.0116503 0.0114365 0.00286778 -0.00474824 0.011507 0.00245632 -0.00427687 0.0118507 0.00144799 -0.00420237 
</DataArray>
</Points>
</Piece>
</UnstructuredGrid>
</VTKFile>
