<?xml version="1.0"?>
<VTKFile type="UnstructuredGrid" version="0.1" byte_order="LittleEndian">
<UnstructuredGrid>
<Piece NumberOfPoints="320" NumberOfCells="320">
<PointData Vectors="Particles">
<DataArray type="Float32" Name="Mass" NumberOfComponents="1" >
1.41117e-08 1.41117e-08 1.41117e-08 1.41117e-08 1.41117e-08 1.41117e-08 1.41117e-08 1.41117e-08 1.41117e-08 1.41117e-08 1.41117e-08 1.41117e-08 1.41117e-08 1.41117e-08 1.41117e-08 1.41117e-08 1.41117e-08 1.41117e-08 1.41117e-08 1.41117e-08 1.41117e-08 1.41117e-08 1.41117e-08 1.41117e-08 1.41117e-08 1.41117e-08 1.41117e-08 1.41117e-08 1.41117e-08 1.41117e-08 1.41117e-08 1.41117e-08 1.41117e-08 1.41117e-08 1.41117e-08 1.41117e-08 1.41117e-08 1.41117e-08 1.41117e-08 1.41117e-08 1.41117e-08 1.41117e-08 1.41117e-08 1.41117e-08 1.41117e-08 1.41117e-08 1.41117e-08 1.41117e-08 1.41117e-08 1.41117e-08 1.41117e-08 1.41117e-08 1.41117e-08 1.41117e-08 1.41117e-08 1.41117e-08 1.41117e-08 1.41117e-08 1.41117e-08 1.41117e-08 1.41117e-08 1.41117e-08 1.41117e-08 1.41117e-08 1.41117e-08 1.41117e-08 1.41117e-08 1.41117e-08 1.41117e-08 1.41117e-08 1.41117e-08 1.41117e-08 1.41117e-08 1.41117e-08 1.41117e-08 1.41117e-08 1.41117e-08 1.41117e-08 1.41117e-08 1.41117e-08 1.41117e-08 1.41117e-08 1.41117e-08 1.41117e-08 1.41117e-08 1.41117e-08 1.41117e-08 1.41117e-08 1.41117e-08 1.41117e-08 1.41117e-08 1.41117e-08 1.41117e-08 1.41117e-08 1.41117e-08 1.41117e-08 1.41117e-08 1.41117e-08 1.41117e-08 1.41117e-08 1.41117e-08 1.41117e-08 1.41117e-08 1.41117e-08 1.41117e-08 1.41117e-08 1.41117e-08 1.41117e-08 1.41117e-08 1.41117e-08 1.41117e-08 1.41117e-08 1.41117e-08 1.41117e-08 1.41117e-08 1.41117e-08 1.41117e-08 1.41117e-08 1.41117e-08 1.41117e-08 1.41117e-08 1.41117e-08 1.41117e-08 1.41117e-08 1.41117e-08 1.41117e-08 1.41117e-08 1.41117e-08 1.41117e-08 1.41117e-08 1.41117e-08 1.41117e-08 1.41117e-08 1.41117e-08 1.41117e-08 1.41117e-08 1.41117e-08 1.41117e-08 1.41117e-08 1.41117e-08 1.41117e-08 1.41117e-08 1.41117e-08 1.41117e-08 1.41117e-08 1.41117e-08 1.41117e-08 1.41117e-08 1.41117e-08 1.41117e-08 1.41117e-08 1.41117e-08 1.41117e-08 1.41117e-08 1.41117e-08 1.41117e-08 1.41117e-08 1.41117e-08 1.41117e-08 1.41117e-08 1.41117e-08 1.41117e-08 1.41117e-08 1.41117e-08 1.41117e-08 1.41117e-08 1.41117e-08 1.41117e-08 1.41117e-08 1.41117e-08 1.41117e-08 1.41117e-08 1.41117e-08 1.41117e-08 1.41117e-08 1.41117e-08 1.41117e-08 1.41117e-08 1.41117e-08 1.41117e-08 1.41117e-08 1.41117e-08 1.41117e-08 1.41117e-08 1.41117e-08 1.41117e-08 1.41117e-08 1.41117e-08 1.41117e-08 1.41117e-08 1.41117e-08 1.41117e-08 1.41117e-08 1.41117e-08 1.41117e-08 1.41117e-08 1.41117e-08 1.41117e-08 1.41117e-08 1.41117e-08 1.41117e-08 1.41117e-08 1.41117e-08 1.41117e-08 1.41117e-08 1.41117e-08 1.41117e-08 1.41117e-08 1.41117e-08 1.41117e-08 1.41117e-08 1.41117e-08 1.41117e-08 1.41117e-08 1.41117e-08 1.41117e-08 1.41117e-08 1.41117e-08 1.41117e-08 1.41117e-08 1.41117e-08 1.41117e-08 1.41117e-08 1.41117e-08 1.41117e-08 1.41117e-08 1.41117e-08 1.41117e-08 1.41117e-08 1.41117e-08 1.41117e-08 1.41117e-08 1.41117e-08 1.41117e-08 1.41117e-08 1.41117e-08 1.41117e-08 1.41117e-08 1.41117e-08 1.41117e-08 1.41117e-08 1.41117e-08 1.41117e-08 1.41117e-08 1.41117e-08 1.41117e-08 1.41117e-08 1.41117e-08 1.41117e-08 1.41117e-08 1.41117e-08 1.41117e-08 1.41117e-08 1.41117e-08 1.41117e-08 1.41117e-08 1.41117e-08 1.41117e-08 1.41117e-08 1.41117e-08 1.41117e-08 1.41117e-08 1.41117e-08 1.41117e-08 1.41117e-08 1.41117e-08 1.41117e-08 1.41117e-08 1.41117e-08 1.41117e-08 1.41117e-08 1.41117e-08 1.41117e-08 1.41117e-08 1.41117e-08 1.41117e-08 1.41117e-08 1.41117e-08 1.41117e-08 1.41117e-08 1.41117e-08 1.41117e-08 1.41117e-08 1.41117e-08 1.41117e-08 1.41117e-08 1.41117e-08 1.41117e-08 1.41117e-08 1.41117e-08 1.41117e-08 1.41117e-08 1.41117e-08 1.41117e-08 1.41117e-08 1.41117e-08 1.41117e-08 1.41117e-08 1.41117e-08 1.41117e-08 1.41117e-08 1.41117e-08 1.41117e-08 1.41117e-08 1.41117e-08 1.41117e-08 1.41117e-08 1.41117e-08 1.41117e-08 1.41117e-08 1.41117e-08 1.41117e-08 1.41117e-08 1.41117e-08 1.41117e-08 1.41117e-08 1.41117e-08 1.41117e-08 1.41117e-08 1.41117e-08 
</DataArray>
<DataArray type="Float32" Name="Radius" NumberOfComponents="1" >
0.00015 0.00015 0.00015 0.00015 0.00015 0.00015 0.00015 0.00015 0.00015 0.00015 0.00015 0.00015 0.00015 0.00015 0.00015 0.00015 0.00015 0.00015 0.00015 0.00015 0.00015 0.00015 0.00015 0.00015 0.00015 0.00015 0.00015 0.00015 0.00015 0.00015 0.00015 0.00015 0.00015 0.00015 0.00015 0.00015 0.00015 0.00015 0.00015 0.00015 0.00015 0.00015 0.00015 0.00015 0.00015 0.00015 0.00015 0.00015 0.00015 0.00015 0.00015 0.00015 0.00015 0.00015 0.00015 0.00015 0.00015 0.00015 0.00015 0.00015 0.00015 0.00015 0.00015 0.00015 0.00015 0.00015 0.00015 0.00015 0.00015 0.00015 0.00015 0.00015 0.00015 0.00015 0.00015 0.00015 0.00015 0.00015 0.00015 0.00015 0.00015 0.00015 0.00015 0.00015 0.00015 0.00015 0.00015 0.00015 0.00015 0.00015 0.00015 0.00015 0.00015 0.00015 0.00015 0.00015 0.00015 0.00015 0.00015 0.00015 0.00015 0.00015 0.00015 0.00015 0.00015 0.00015 0.00015 0.00015 0.00015 0.00015 0.00015 0.00015 0.00015 0.00015 0.00015 0.00015 0.00015 0.00015 0.00015 0.00015 0.00015 0.00015 0.00015 0.00015 0.00015 0.00015 0.00015 0.00015 0.00015 0.00015 0.00015 0.00015 0.00015 0.00015 0.00015 0.00015 0.00015 0.00015 0.00015 0.00015 0.00015 0.00015 0.00015 0.00015 0.00015 0.00015 0.00015 0.00015 0.00015 0.00015 0.00015 0.00015 0.00015 0.00015 0.00015 0.00015 0.00015 0.00015 0.00015 0.00015 0.00015 0.00015 0.00015 0.00015 0.00015 0.00015 0.00015 0.00015 0.00015 0.00015 0.00015 0.00015 0.00015 0.00015 0.00015 0.00015 0.00015 0.00015 0.00015 0.00015 0.00015 0.00015 0.00015 0.00015 0.00015 0.00015 0.00015 0.00015 0.00015 0.00015 0.00015 0.00015 0.00015 0.00015 0.00015 0.00015 0.00015 0.00015 0.00015 0.00015 0.00015 0.00015 0.00015 0.00015 0.00015 0.00015 0.00015 0.00015 0.00015 0.00015 0.00015 0.00015 0.00015 0.00015 0.00015 0.00015 0.00015 0.00015 0.00015 0.00015 0.00015 0.00015 0.00015 0.00015 0.00015 0.00015 0.00015 0.00015 0.00015 0.00015 0.00015 0.00015 0.00015 0.00015 0.00015 0.00015 0.00015 0.00015 0.00015 0.00015 0.00015 0.00015 0.00015 0.00015 0.00015 0.00015 0.00015 0.00015 0.00015 0.00015 0.00015 0.00015 0.00015 0.00015 0.00015 0.00015 0.00015 0.00015 0.00015 0.00015 0.00015 0.00015 0.00015 0.00015 0.00015 0.00015 0.00015 0.00015 0.00015 0.00015 0.00015 0.00015 0.00015 0.00015 0.00015 0.00015 0.00015 0.00015 0.00015 0.00015 0.00015 0.00015 0.00015 0.00015 0.00015 0.00015 0.00015 0.00015 0.00015 0.00015 0.00015 0.00015 0.00015 0.00015 0.00015 0.00015 0.00015 0.00015 0.00015 0.00015 0.00015 0.00015 0.00015 0.00015 0.00015 0.00015 0.00015 0.00015 0.00015 0.00015 0.00015 0.00015 0.00015 0.00015 0.00015 0.00015 0.00015 0.00015 0.00015 0.00015 
</DataArray>
<DataArray type="Float32" Name="Velocity" NumberOfComponents="3" >
0 0 0 0 0 0 0 0 0 0 0 0 0 0 0 0 0 0 0 0 0 0 0 0 0 0 0 0 0 0 0 0 0 0 0 0 0 0 0 0 0 0 0 0 0 0 0 0 0 0 0 0 0 0 0 0 0 0 0 0 0 0 0 0 0 0 -0.0101575 0.000165297 -0.0209444 0 0 0 0 0 0 0 0 0 0 0 0 -0.0100216 -9.35986e-05 -0.0204876 -0.0110643 -3.02623e-05 -0.0230004 -0.010373 0.000134402 -0.02072 -0.0112808 0.000141116 -0.0227939 0 0 0 0 0 0 0 0 0 -0.00995683 9.1415e-05 -0.0195995 -0.0117345 -2.2141e-05 -0.0243546 -0.0114187 -4.97127e-05 -0.0233438 0 0 0 -0.0120908 0.000121056 -0.0245334 -0.0125539 6.95883e-05 -0.0261353 -0.00974524 4.3948e-06 -0.0191846 0 0 0 0 0 0 0 0 0 -0.0106704 -6.23149e-05 -0.0206591 -0.00737121 0.0001412 -0.0132374 -0.0133791 0.000175235 -0.0261999 -0.0120962 0.000147352 -0.0232269 0 0 0 -0.00666969 0.000173272 -0.0115421 -0.00811863 0.000209312 -0.0146076 -0.0153725 -0.000216785 -0.0308328 -0.011745 0.000173192 -0.0222488 -0.00446695 5.14422e-05 -0.00729259 -0.0152324 -0.000470211 -0.0298408 -0.0160276 -0.000277226 -0.031705 0 0 0 -0.0141989 0.000221773 -0.0272242 0 0 0 -0.0170216 0.000147731 -0.0332859 -0.0172638 -9.68934e-05 -0.0338549 -0.0174536 -0.000163534 -0.0340225 0 0 0 0 0 0 -0.0149057 0.000237391 -0.0284323 -0.0156706 0.00027806 -0.0299888 -0.0163765 -0.000485562 -0.0314687 -0.0176274 -0.000264276 -0.0339925 -0.0141816 -0.000518322 -0.0272086 0 0 0 -0.0171993 0.00018843 -0.0331837 -0.00764766 -0.000176803 -0.014067 -0.0122737 0.000133199 -0.0227759 -0.0176719 -0.00036295 -0.0338377 -0.017311 0.000191758 -0.0332469 -0.0148259 0.000183223 -0.0280349 -0.00836307 0.000311944 -0.0155849 -0.0117638 -0.000299308 -0.022448 -0.0136639 -0.000446613 -0.0261464 -0.0115354 -0.00027583 -0.0220098 -0.0150061 0.000167035 -0.0283322 -0.0186877 -0.000267967 -0.0354326 -0.0151896 -0.000477866 -0.02895 -0.0191073 -0.000246192 -0.0360445 -0.0190784 -0.000251799 -0.0359891 -0.00963524 -0.000192117 -0.0183275 -0.0187648 6.89828e-05 -0.0355161 -0.0177713 0.000210751 -0.0335452 -0.0128922 -0.000363082 -0.0247089 0 0 0 -0.0190146 -0.000287727 -0.0358035 -0.0151317 -0.000440334 -0.0288267 -0.0181078 -0.000334322 -0.0340746 0 0 0 -0.0160299 0.000177104 -0.0301138 -0.0133339 -0.000373271 -0.0255532 -0.0151756 -0.000429133 -0.0288967 -0.0157334 -0.000423876 -0.0298746 -0.0115793 8.28403e-05 -0.0220736 -0.0178681 0.000173587 -0.0334519 -0.0200762 -0.000165798 -0.0376127 -0.0185058 -0.000295846 -0.0346145 -0.0197177 -2.15366e-06 -0.036938 -0.00707103 -0.000240178 -0.0137188 -0.0177858 0.000170339 -0.0330344 -0.0192562 -0.000256199 -0.0358198 -0.019668 4.3566e-05 -0.0365246 0 0 0 -0.0193107 8.89668e-05 -0.0356959 -0.0178603 -0.000298104 -0.033155 -0.0208069 -0.000123387 -0.0386422 -0.0194863 -0.000244741 -0.0359905 -0.0197739 -0.000240062 -0.0365328 -0.0131476 0.00013672 -0.0248311 -0.00976164 0.000109764 -0.0190095 -0.0114111 -0.000412573 -0.0220775 -0.0208508 -0.000204108 -0.0385112 -0.0211127 -0.000145735 -0.0390504 -0.00791912 -0.00040183 -0.0157598 -0.0107601 0.000115715 -0.020752 -0.0159672 -0.000385634 -0.0296861 -0.0157515 -0.00039524 -0.0293373 -0.00844148 -0.000423357 -0.0167302 -0.0164314 -0.000369815 -0.0303875 -0.0179207 0.000157181 -0.0327933 -0.0212297 -4.52121e-05 -0.0390606 -0.0207586 3.1737e-05 -0.0380211 -0.0211526 -3.32894e-06 -0.0388023 0 0 0 -0.019344 9.37794e-05 -0.0352003 -0.0200774 8.09274e-05 -0.0365891 -0.0173563 -0.000328369 -0.0317127 -0.0154653 -0.000409131 -0.0286298 -0.0170838 0.000164309 -0.0311618 0 0 0 -0.014035 -0.000433504 -0.0262687 -0.0189478 9.37612e-05 -0.0343752 -0.020883 5.69137e-05 -0.0379119 -0.0196008 -0.000274129 -0.0355122 -0.0113888 -0.000479023 -0.0218156 -0.0216405 -0.0001969 -0.0394216 0 0 0 -0.0213312 2.3842e-05 -0.038662 -0.0207434 -0.000276318 -0.0375677 -0.0217686 -0.000179801 -0.0396522 -0.0213713 -0.000264669 -0.0387046 -0.0183041 -0.000311693 -0.0329132 0 0 0 -0.0158597 0.000164253 -0.0287768 0 0 0 -0.022017 -0.000124498 -0.039899 -0.0216511 -0.000249768 -0.0391482 -0.0220095 -8.46548e-05 -0.0398092 -0.0208421 5.26043e-05 -0.0374642 -0.0142666 0.000224898 -0.0260892 -0.013363 -0.000461127 -0.0246316 -0.0198208 -0.000315454 -0.0355361 0 0 0 -0.0156144 0.000139837 -0.0281636 0 0 0 -0.014847 -0.000391499 -0.026869 -0.0191452 -0.000322659 -0.0340787 -0.0222513 -0.000179781 -0.0400208 -0.0199796 -0.000328554 -0.0356148 -0.0207883 3.35844e-05 -0.0370661 -0.0222028 -0.000199349 -0.0398878 0 0 0 -0.0118805 -0.000490981 -0.0220448 -0.0222364 -0.000197643 -0.0398986 -0.0222602 -0.00019989 -0.0398908 0 0 0 -0.0202961 5.03501e-05 -0.0360243 -0.0205728 -0.000331902 -0.0365578 -0.0164937 -0.000324264 -0.0293841 -0.0168235 7.09959e-05 -0.0299419 -0.00973411 0.000383764 -0.0188339 -0.0215366 -0.000289251 -0.038336 -0.0160401 -0.000324566 -0.0286275 -0.0217077 -1.82994e-05 -0.0386395 -0.00949899 0.000393232 -0.0184546 -0.014644 0.000147137 -0.0263632 0 0 0 -0.0221462 -5.29739e-05 -0.0394532 -0.022081 -0.000246585 -0.0393926 -0.0215068 -0.000291674 -0.0382121 -0.0215316 -0.000292879 -0.0382419 -0.022466 -9.82579e-05 -0.0400758 -0.0116705 0.000316992 -0.0217346 -0.0220906 -0.000248426 -0.0393292 -0.00639029 -0.000515096 -0.0128094 -0.0159432 7.92344e-05 -0.0283423 -0.019474 -0.000327463 -0.0343174 0 0 0 -0.0187831 7.73813e-05 -0.0329998 -0.0223857 -6.25588e-05 -0.0396702 -0.00602223 -0.000520018 -0.0121139 -0.0218793 -1.89637e-05 -0.0386373 -0.0226733 -0.000138885 -0.0402645 -0.0223669 -0.000222272 -0.0395991 -0.0226319 -0.000101009 -0.0401104 -0.0218688 -1.16808e-05 -0.0384983 -0.0125167 0.000223124 -0.0227957 -0.0176089 -0.000312376 -0.030875 0 0 0 -0.0105275 0.000348977 -0.0196888 -0.0227323 -0.000131239 -0.0402064 -0.022771 -0.000147237 -0.0402481 -0.0198214 -0.000338145 -0.034524 -0.0219167 -0.000290213 -0.0384069 -0.0216092 -0.000310225 -0.0378033 -0.0103056 0.000343721 -0.0192094 -0.0107735 0.000305716 -0.0199038 -0.0227425 -0.000169961 -0.0400693 -0.0228011 -0.000155857 -0.0402048 -0.0214029 -0.000327726 -0.0372691 -0.0202256 9.44828e-05 -0.0350109 -0.0190112 0.000102839 -0.0328495 -0.0225748 -0.000222558 -0.0396113 -0.00901441 -0.000534784 -0.0171593 -0.0223183 -0.000272487 -0.0390437 -0.0226426 -0.000206851 -0.0397468 -0.0142806 9.39782e-05 -0.0252045 -0.022424 -8.1321e-06 -0.0391877 -0.0224517 -0.000263929 -0.0392516 -0.0198728 -0.00036784 -0.0342387 -0.0227145 -6.98497e-05 -0.0398421 -0.0223952 1.90774e-06 -0.0390714 -0.0227692 -0.000121446 -0.0399396 -0.0227901 -0.000183183 -0.0399533 0 0 0 -0.0218848 6.50615e-05 -0.0377979 -0.0224728 1.14642e-06 -0.0391347 -0.0226885 -3.37069e-05 -0.0396354 -0.0146976 0.000108392 -0.0256291 -0.0157339 -0.000356627 -0.0271999 -0.00948618 -0.000470273 -0.0176736 -0.0224336 -0.000288093 -0.0390223 -0.0105581 -0.000395458 -0.0192461 -0.0226469 -2.34188e-05 -0.0395047 -0.0218599 -0.000348233 -0.0377775 -0.00953275 -0.000458171 -0.0177126 -0.0204745 0.000118643 -0.035014 -0.0207778 0.000112284 -0.0355714 -0.0207993 -0.000382224 -0.0356303 -0.021595 -0.000364889 -0.0371915 -0.0225797 -1.25897e-05 -0.0392689 -0.00826215 -0.000514478 -0.0157679 0 0 0 -0.0122597 -0.000337401 -0.0217089 -0.00934171 -0.000433038 -0.017268 -0.00541268 0.000441088 -0.0108825 -0.0211343 0.000107047 -0.0360903 -0.00879765 0.000382349 -0.0163577 -0.0223003 -0.000333387 -0.0384997 -0.017921 0.000146367 -0.0304765 -0.017109 0.000141923 -0.0291486 -0.0225919 -1.44192e-05 -0.0391242 -0.0202886 0.000120333 -0.034419 -0.0204394 -0.00040907 -0.0347545 -0.0141903 0.0001308 -0.0244853 -0.021352 -0.000392484 -0.0364598 -0.0205503 0.000114699 -0.0348429 -0.00988153 -0.000374 -0.0178367 -0.0141592 0.000139149 -0.0243404 -0.0190242 -0.000425749 -0.0322007 -0.0210883 -0.000405593 -0.0358748 -0.0222963 2.19548e-05 -0.0383419 -0.0180983 0.000166044 -0.0305747 -0.0115576 0.000150825 -0.0203751 -0.0198648 -0.000425688 -0.033579 -0.0220659 -0.000365988 -0.0377883 -0.0174806 0.000166862 -0.0295221 -0.0201187 -0.000426786 -0.0340162 -0.0199415 -0.000431672 -0.0336412 -0.0136834 0.000162264 -0.0234118 -0.00783918 0.000428088 -0.0145721 0 0 0 -0.00950961 0.000233239 -0.0170571 -0.0172241 0.000178693 -0.0289232 -0.00514115 0.000516799 -0.0104569 -0.00658749 -0.000476636 -0.0127428 -0.00624154 -0.000488346 -0.0121934 -0.0124858 0.000187255 -0.0213084 -0.011621 0.000184747 -0.0200053 -0.0174402 -0.000422957 -0.0290481 -0.0152507 0.00018021 -0.0254202 -0.0143039 0.000184596 -0.0239015 -0.0095597 0.000215454 -0.0167997 -0.0117036 -0.000455552 -0.0201379 -0.0057637 -0.000491477 -0.0113739 -0.0053739 -0.000515969 -0.0107622 -0.0162343 0.000168553 -0.0269054 -0.00779969 -0.000381381 -0.0141563 -0.0148908 0.000171138 -0.0246776 -0.00649836 -0.000439718 -0.0122881 -0.0150103 -0.000410456 -0.0248753 -0.00697952 -0.00040697 -0.0128291 -0.00821618 0.00026773 -0.0145551 -0.0112611 0.000221962 -0.0190766 -0.0100547 -0.000456407 -0.017437 -0.0115933 -0.00048384 -0.0196717 -0.00682085 0.000230098 -0.0120483 0 0 0 -0.00724072 -0.000402346 -0.0127647 -0.00516218 -0.000428723 -0.00963584 -0.00648552 0.000219939 -0.0114194 0 0 0 0 0 0 -0.00338638 -0.000490743 -0.00706639 0 0 0 0 0 0 0 0 0 -0.00512788 0.000224911 -0.0091934 0 0 0 0 0 0 0 0 0 0 0 0 0 0 0 0 0 0 -0.0012952 0.000109754 -0.00246515 
</DataArray>
<DataArray type="Float32" Name="Force" NumberOfComponents="3" >
-6.96644e-11 9.40802e-13 3.30209e-11 8.27833e-11 -2.61221e-12 1.96556e-10 -1.46715e-10 -8.9966e-13 -7.15804e-12 -1.11412e-10 -4.21457e-12 -8.58563e-12 -1.34453e-10 -3.42807e-12 -1.1683e-11 1.70866e-10 -4.30663e-13 4.06507e-10 -1.33993e-10 -5.92441e-12 -2.30459e-11 1.37644e-10 -2.29105e-12 3.27141e-10 2.00826e-10 -3.59042e-12 5.07241e-10 -1.74451e-10 -3.27743e-12 -2.82974e-11 2.43165e-10 1.41277e-12 6.10401e-10 -1.97763e-10 -1.20816e-12 -4.42511e-11 7.23968e-11 -1.49155e-12 1.55821e-10 -1.00222e-10 -5.38833e-12 1.23578e-11 -6.58546e-12 -8.623e-12 -6.56377e-11 3.78628e-12 3.55755e-12 5.38994e-12 2.35893e-10 1.30491e-12 6.53926e-10 -3.17326e-10 -4.25846e-12 -1.76097e-10 -1.92833e-10 2.32273e-12 -3.69255e-11 -2.13651e-10 4.84992e-12 -6.83242e-11 1.88428e-10 4.87405e-12 4.27358e-10 1.16184e-10 1.79321e-12 2.48334e-10 -2.1788e-10 1.25495e-11 -3.08591e-11 2.71698e-10 -2.42752e-12 7.91855e-10 2.80744e-10 4.64751e-12 7.73426e-10 -5.12608e-12 -9.1389e-12 -5.56208e-11 -8.59794e-12 1.0914e-11 1.68716e-10 -1.96831e-10 -5.68406e-12 2.26654e-11 -1.8064e-10 1.18442e-11 4.20954e-11 -1.55359e-10 1.95891e-11 8.90492e-11 -1.51594e-10 1.74053e-11 8.54558e-11 -6.30369e-11 3.42725e-11 2.06327e-10 -1.5182e-10 -6.46952e-11 1.07356e-10 2.52642e-10 7.69775e-12 7.10861e-10 -1.49161e-10 2.3759e-11 1.22668e-10 -1.59495e-10 2.31778e-11 7.5746e-11 -1.60076e-10 1.97207e-11 9.26078e-11 -9.73237e-11 -5.80263e-11 1.33407e-10 -1.30525e-10 1.61289e-11 1.11665e-10 -1.31664e-10 2.46687e-11 9.60036e-11 -1.47541e-10 2.68089e-12 1.05154e-10 -2.11261e-11 -2.08466e-12 2.81129e-11 2.3153e-10 8.38682e-12 5.92407e-10 -1.09786e-10 -3.60983e-12 5.69969e-11 -1.46794e-10 4.01589e-11 8.07806e-11 -1.7508e-10 4.45629e-12 5.82839e-11 -9.34757e-11 -1.294e-11 1.10818e-10 -1.52394e-10 -1.69495e-11 6.86595e-11 -8.17405e-11 -3.72187e-11 9.42898e-11 -1.84184e-10 -3.72195e-12 2.2826e-11 -1.92485e-10 -3.71389e-12 2.29212e-11 -3.01707e-11 6.37656e-11 1.54495e-10 -1.55339e-10 -1.49848e-11 4.88282e-11 -1.23735e-10 -3.15809e-11 1.13715e-10 -8.96356e-11 9.11098e-11 1.77178e-10 -4.5104e-11 6.56122e-11 1.80023e-10 -2.08243e-10 -7.43461e-12 -1.68763e-11 -5.14558e-11 -2.55454e-11 9.0079e-11 -1.52055e-10 -8.6051e-12 -2.51961e-12 5.54949e-11 7.41663e-12 1.5065e-10 -4.08679e-12 2.87739e-11 1.81219e-10 -8.6388e-12 2.98742e-11 1.84716e-10 1.3129e-10 7.55906e-12 2.90524e-10 1.79109e-10 7.31731e-12 4.28163e-10 -3.28508e-11 -2.59911e-11 9.25893e-11 -2.36879e-11 -2.03507e-11 1.05046e-10 -1.0266e-10 7.40238e-11 2.18773e-10 -2.43908e-11 4.07419e-11 1.96574e-10 -1.34172e-10 8.70976e-11 1.48891e-10 1.17281e-10 6.55423e-12 2.57122e-10 3.98092e-11 7.65199e-12 1.35009e-10 -2.12115e-10 6.37128e-11 -1.86559e-11 -9.6296e-11 -2.34148e-11 3.16618e-11 -3.3921e-11 5.03816e-11 2.05316e-10 3.75348e-11 1.08559e-11 1.30371e-10 -3.60729e-11 -2.92907e-11 8.32533e-11 -2.03612e-10 -7.68119e-12 -5.45561e-11 -1.77524e-10 8.93718e-11 7.70185e-11 -1.20127e-10 7.52068e-11 1.42947e-10 -1.83051e-10 9.00737e-11 7.19915e-11 -3.17185e-11 -2.08022e-11 8.92548e-11 2.24997e-11 3.90573e-11 1.68076e-10 -4.97922e-11 6.14143e-11 1.62173e-10 3.23934e-11 3.87377e-11 1.5599e-10 3.03771e-11 4.00892e-11 1.57935e-10 -2.05731e-10 8.77754e-11 4.30434e-12 5.54917e-11 3.00503e-11 1.26756e-10 2.96408e-11 2.31223e-11 1.18767e-10 -1.09604e-10 6.53144e-11 1.34445e-10 -1.59928e-10 -5.93241e-12 -1.14658e-11 3.50202e-11 4.38926e-11 1.60799e-10 -2.37921e-11 5.71671e-11 1.52724e-10 3.10059e-11 5.2496e-11 1.60476e-10 -1.99765e-10 5.73613e-11 -3.66952e-11 7.56393e-12 8.96378e-12 1.05637e-10 -7.32889e-11 5.6917e-11 1.42724e-10 -1.01578e-11 5.48106e-11 1.49069e-10 8.16621e-12 5.40566e-11 1.49913e-10 -4.5019e-11 -3.77612e-11 -9.8887e-12 3.10061e-11 2.67061e-11 1.18829e-10 3.49146e-11 3.31213e-11 1.22799e-10 4.32459e-11 5.38752e-11 1.50759e-10 5.30481e-11 3.20933e-11 1.10459e-10 -2.21083e-10 8.39353e-11 -7.23265e-11 4.66641e-11 2.60606e-11 1.09598e-10 4.76278e-11 5.36295e-11 1.39999e-10 5.39945e-11 2.89156e-11 1.10022e-10 -1.68539e-10 4.51606e-11 -1.67116e-11 4.82629e-11 3.01112e-11 1.15695e-10 4.97688e-11 6.22988e-11 1.45405e-10 4.60654e-11 4.21186e-11 1.1633e-10 5.48006e-11 5.87601e-11 1.43721e-10 5.59394e-11 5.62878e-11 1.4128e-10 -5.93675e-12 3.50437e-12 4.73922e-11 -4.64818e-11 -2.86736e-11 -5.03994e-11 -7.32414e-11 5.68771e-11 1.05705e-10 3.64275e-11 5.47316e-11 1.35251e-10 3.48204e-11 5.03e-11 1.26744e-10 -1.72727e-10 8.07027e-11 2.75423e-11 -2.99983e-11 -7.69046e-12 -1.41857e-12 5.12791e-11 5.03897e-11 1.35409e-10 5.17546e-11 4.87673e-11 1.3418e-10 -1.58432e-10 7.48066e-11 5.18703e-11 5.75008e-11 5.23852e-11 1.37944e-10 7.28484e-11 3.25676e-11 1.03707e-10 3.96866e-11 5.65742e-11 1.30443e-10 4.51147e-11 5.08714e-11 1.28982e-10 4.38449e-11 5.40522e-11 1.27982e-10 -8.57452e-11 6.75796e-13 -4.77059e-11 6.45288e-11 4.06735e-11 1.16347e-10 4.75506e-11 4.68107e-11 1.28452e-10 5.8062e-11 6.1071e-11 1.42459e-10 5.2196e-11 4.88093e-11 1.29134e-10 7.43665e-11 3.16776e-11 9.59107e-11 -1.22295e-10 3.03249e-11 1.08512e-11 2.80386e-11 5.03881e-11 1.14147e-10 7.5066e-11 3.76939e-11 1.07483e-10 2.45853e-11 6.19864e-11 1.42936e-10 4.53372e-11 6.7878e-11 1.4241e-10 -2.17313e-11 5.4768e-11 8.70011e-11 1.87426e-11 6.32627e-11 1.42928e-10 -1.74976e-10 8.13985e-11 -1.23702e-11 2.07464e-11 6.08436e-11 1.41785e-10 3.34248e-11 6.46259e-11 1.3659e-10 1.62597e-11 6.22499e-11 1.43194e-10 2.59955e-11 6.24331e-11 1.35579e-10 5.07021e-11 6.3618e-11 1.32724e-10 -1.86131e-10 6.28366e-11 -6.84676e-11 7.4171e-11 2.83866e-11 8.75175e-11 7.47322e-11 6.20451e-12 1.61546e-10 1.7048e-11 5.90421e-11 1.40073e-10 2.7986e-11 5.63912e-11 1.30354e-10 1.76428e-11 5.89274e-11 1.39068e-10 2.66955e-11 5.87185e-11 1.31739e-10 5.79525e-11 2.87349e-11 7.40491e-11 2.17968e-11 5.77574e-11 1.05632e-10 3.95192e-11 6.22734e-11 1.23322e-10 -1.57634e-10 7.45666e-11 -4.98977e-12 7.39405e-11 2.59042e-11 9.03156e-11 -6.63354e-11 2.93093e-12 -5.9664e-12 4.08978e-11 6.34631e-11 1.15233e-10 5.29922e-11 6.02336e-11 1.19857e-10 2.74008e-11 5.22977e-11 1.17401e-10 5.27975e-11 5.92442e-11 1.18559e-10 4.92666e-11 4.65609e-11 1.11411e-10 3.14382e-11 4.88405e-11 1.13884e-10 -1.46292e-10 6.72844e-11 1.92554e-11 -1.30218e-13 5.98481e-11 8.77124e-11 3.09212e-11 5.00905e-11 1.12097e-10 3.14917e-11 4.93012e-11 1.09381e-10 5.79793e-12 -2.12225e-12 1.23301e-11 6.34771e-11 3.96335e-11 1.01211e-10 5.76957e-11 5.82646e-11 1.1716e-10 5.02907e-11 6.33476e-11 1.11739e-10 7.64775e-11 2.60842e-11 9.46852e-11 -2.3075e-11 3.05316e-11 2.65734e-11 4.6351e-11 5.58338e-11 1.09714e-10 4.74134e-11 6.67409e-11 1.12159e-10 4.19689e-11 4.02201e-11 1.08597e-10 -2.54465e-11 3.01504e-11 2.44703e-11 6.83861e-11 2.65972e-11 8.79656e-11 -8.05489e-11 2.59829e-11 2.45495e-11 3.46208e-11 3.82107e-11 1.06396e-10 3.75102e-11 5.32816e-11 1.07149e-10 4.72783e-11 5.67192e-11 1.09118e-10 4.79861e-11 5.48635e-11 1.07806e-10 2.63979e-11 4.17382e-11 1.03926e-10 4.38029e-11 2.58717e-11 4.94011e-11 3.71033e-11 5.53893e-11 1.05945e-10 -1.20828e-10 5.95361e-11 2.52029e-11 7.56352e-11 2.83423e-11 9.3606e-11 7.02823e-11 5.65279e-11 1.13871e-10 -1.48652e-10 6.17763e-11 1.97647e-11 8.00017e-11 3.21432e-11 9.14959e-11 2.76989e-11 3.10644e-11 9.54677e-11 -1.22728e-10 5.90002e-11 1.96926e-11 4.23997e-11 2.81171e-11 9.8014e-11 1.39723e-11 4.56955e-11 8.91161e-11 2.27937e-11 5.75802e-11 9.62282e-11 1.52915e-11 3.50227e-11 8.91975e-11 4.29102e-11 2.351e-11 9.5984e-11 6.28872e-11 2.62345e-11 7.17726e-11 7.80507e-11 5.48895e-11 1.08954e-10 -8.37757e-11 3.56549e-11 -5.3783e-11 4.53081e-11 2.97992e-11 4.713e-11 9.79533e-12 4.94675e-11 8.46853e-11 8.07605e-12 5.59204e-11 8.30781e-11 6.83681e-11 6.34154e-11 1.09874e-10 3.1272e-11 6.45703e-11 9.66394e-11 3.92332e-11 6.43069e-11 1.00795e-10 5.1521e-11 3.52103e-11 5.45646e-11 5.90809e-11 3.56573e-11 6.36447e-11 7.9234e-12 6.04452e-11 7.88858e-11 6.64028e-12 5.77697e-11 7.85808e-11 4.24192e-11 6.61909e-11 9.88323e-11 6.94009e-11 3.05501e-11 8.91974e-11 7.92762e-11 3.20365e-11 8.74485e-11 1.04019e-11 6.30392e-11 7.89038e-11 -1.73253e-11 6.09403e-11 6.29159e-11 1.95633e-11 6.79987e-11 8.69092e-11 8.53062e-12 6.27318e-11 7.68065e-11 7.58259e-11 3.55548e-11 8.28049e-11 1.97579e-11 4.07311e-11 7.77924e-11 1.01085e-11 6.45388e-11 7.8099e-11 5.71418e-11 6.71475e-11 9.80218e-11 8.21377e-12 4.67053e-11 7.38585e-11 1.86458e-11 4.31802e-11 7.60157e-11 3.44797e-12 5.18982e-11 7.0415e-11 3.38313e-13 6.06172e-11 6.73565e-11 -1.29315e-10 5.71703e-11 1.882e-11 2.68346e-11 4.40104e-11 7.30523e-11 1.06775e-11 4.81682e-11 7.02382e-11 5.32453e-12 5.01294e-11 6.90203e-11 7.79479e-11 3.56587e-11 7.87641e-11 6.95331e-11 5.23602e-11 9.95588e-11 -5.1824e-13 7.18594e-11 7.04914e-11 1.13179e-12 6.56794e-11 6.93342e-11 1.04101e-11 7.79849e-11 7.91164e-11 4.29907e-12 5.01711e-11 6.72046e-11 1.09507e-11 6.61444e-11 7.23621e-11 -7.2711e-13 7.39222e-11 7.13028e-11 5.01642e-11 4.5165e-11 8.23941e-11 4.39043e-11 4.58743e-11 8.10008e-11 2.96157e-11 6.7647e-11 7.65837e-11 1.52713e-11 6.70651e-11 7.34488e-11 -1.90459e-12 4.73793e-11 6.2391e-11 -1.62816e-11 6.50473e-11 5.61807e-11 -7.51628e-11 4.81764e-11 1.0646e-11 4.5975e-11 6.35741e-11 9.53826e-11 -2.15091e-12 7.62106e-11 6.7974e-11 -5.98319e-11 3.81869e-11 -5.38625e-12 2.32773e-11 5.14279e-11 7.16589e-11 6.20193e-11 7.06894e-11 8.19039e-11 -1.2802e-11 6.46024e-11 5.82852e-11 7.42198e-11 5.11637e-11 8.69052e-11 8.25708e-11 4.92949e-11 8.58982e-11 -1.73804e-11 4.97719e-11 5.32459e-11 2.86609e-11 5.05671e-11 7.43178e-11 1.86007e-11 6.68628e-11 6.70188e-11 7.99279e-11 3.74037e-11 7.85884e-11 1.21338e-12 6.68567e-11 6.0943e-11 1.98457e-11 4.9693e-11 7.26368e-11 1.59422e-11 7.14714e-11 7.87699e-11 8.11547e-11 3.85295e-11 7.96894e-11 4.13586e-11 7.17687e-11 7.74363e-11 -2.03975e-12 6.24297e-11 5.66588e-11 -2.20476e-11 4.23529e-11 5.27659e-11 5.53843e-11 5.8158e-11 8.70959e-11 5.73295e-11 3.99739e-11 7.70792e-11 1.8152e-11 6.78307e-11 6.45393e-11 -2.93724e-11 5.89341e-11 4.7657e-11 5.91889e-11 5.82985e-11 8.64767e-11 9.59228e-12 6.44982e-11 5.98397e-11 1.14273e-11 6.54624e-11 6.12711e-11 7.71814e-11 4.38935e-11 8.10554e-11 6.15176e-11 8.16981e-11 8.34675e-11 -7.06738e-11 4.13342e-11 5.83867e-12 5.44892e-11 5.38e-11 7.92834e-11 4.76271e-11 6.26755e-11 8.70112e-11 -2.30622e-11 3.96692e-11 -1.83592e-12 -1.38529e-11 5.86816e-11 5.82065e-11 -1.66139e-11 5.55335e-11 5.5313e-11 6.62898e-11 4.40938e-11 8.23392e-11 5.63357e-11 3.83397e-11 7.83529e-11 3.61741e-11 7.60145e-11 7.533e-11 5.21367e-11 6.29936e-11 9.32538e-11 5.9108e-11 6.21788e-11 9.10863e-11 3.70043e-11 3.90157e-11 6.9958e-11 4.4381e-11 5.96397e-11 9.16583e-11 -1.8139e-11 5.22109e-11 5.3403e-11 -2.33467e-11 4.57761e-11 4.72962e-11 3.7221e-11 4.86878e-11 9.35855e-11 1.82297e-11 6.19793e-11 7.86746e-11 4.69576e-11 5.47216e-11 9.47222e-11 -6.6672e-12 5.80402e-11 6.60219e-11 4.02534e-11 7.50474e-11 8.65349e-11 1.39201e-11 5.7112e-11 7.49309e-11 3.49095e-11 4.73433e-11 6.71082e-11 5.53782e-11 5.40848e-11 8.36201e-11 3.57282e-11 5.98962e-11 8.34928e-11 4.6134e-11 5.97625e-11 8.8477e-11 2.13888e-11 3.75468e-11 4.82643e-11 -8.79951e-11 3.32327e-11 -1.99129e-12 2.45531e-11 6.732e-11 7.10996e-11 9.66789e-12 5.23934e-11 6.42044e-11 1.71503e-11 3.4307e-11 4.18718e-11 -4.79764e-11 2.40309e-11 4.04002e-12 -8.58987e-12 4.15522e-11 4.92544e-11 -2.04574e-11 3.84241e-11 4.25659e-11 -7.6873e-11 2.85747e-11 -2.80998e-12 -4.51096e-11 2.30222e-11 -1.57456e-11 -1.85822e-11 3.93593e-11 4.17529e-11 2.00216e-11 4.2829e-11 3.72311e-11 6.13599e-12 7.22773e-11 4.6855e-11 -4.61338e-11 2.18897e-11 4.31503e-13 -6.11031e-11 2.44114e-11 -2.03324e-12 -3.95754e-11 2.43478e-11 -5.25591e-12 -2.5572e-12 2.34286e-11 3.34496e-12 -7.47403e-12 1.62488e-11 -4.90592e-12 -7.87752e-13 6.27438e-13 -1.12624e-12 
</DataArray>
<DataArray type="Float32" Name="Active" NumberOfComponents="1" >
0 0 0 0 0 0 0 0 0 0 0 0 0 0 0 0 0 0 0 0 0 0 0 0 0 0 0 0 0 0 0 0 0 0 0 0 0 0 0 0 0 0 0 0 0 0 0 0 0 0 0 0 0 0 0 0 0 0 0 0 0 0 0 0 0 0 0 0 0 0 0 0 0 0 0 0 0 0 0 0 0 0 0 0 0 0 0 0 0 0 0 0 0 0 0 0 0 0 0 0 0 0 0 0 0 0 0 0 0 0 0 0 0 0 0 0 0 0 0 0 0 0 0 0 0 0 0 0 0 0 0 0 0 0 0 0 0 0 0 0 0 0 0 0 0 0 0 0 0 0 0 0 0 0 0 0 0 0 0 0 0 0 0 0 0 0 0 0 0 0 0 0 0 0 0 0 0 0 0 0 0 0 0 0 0 0 0 0 0 0 0 0 0 0 0 0 0 0 0 0 0 0 0 0 0 0 0 0 0 0 0 0 0 0 0 0 0 0 0 0 0 0 0 0 0 0 0 0 0 0 0 0 0 0 0 0 0 0 0 0 0 0 0 0 0 0 0 0 0 0 0 0 0 0 0 0 0 0 0 0 0 0 0 0 0 0 0 0 0 0 0 0 0 0 0 0 0 0 0 0 0 0 0 0 0 0 0 0 0 0 0 0 0 0 0 0 0 0 0 0 0 0 0 0 0 0 0 0 0 0 0 0 0 0 0 0 0 0 0 1 
</DataArray>
</PointData>
<CellData /> 
<Cells>
<DataArray type="Int32" Name="connectivity" format="ascii">
0 1 2 3 4 5 6 7 8 9 10 11 12 13 14 15 16 17 18 19 20 21 22 23 24 25 26 27 28 29 30 31 32 33 34 35 36 37 38 39 40 41 42 43 44 45 46 47 48 49 50 51 52 53 54 55 56 57 58 59 60 61 62 63 64 65 66 67 68 69 70 71 72 73 74 75 76 77 78 79 80 81 82 83 84 85 86 87 88 89 90 91 92 93 94 95 96 97 98 99 100 101 102 103 104 105 106 107 108 109 110 111 112 113 114 115 116 117 118 119 120 121 122 123 124 125 126 127 128 129 130 131 132 133 134 135 136 137 138 139 140 141 142 143 144 145 146 147 148 149 150 151 152 153 154 155 156 157 158 159 160 161 162 163 164 165 166 167 168 169 170 171 172 173 174 175 176 177 178 179 180 181 182 183 184 185 186 187 188 189 190 191 192 193 194 195 196 197 198 199 200 201 202 203 204 205 206 207 208 209 210 211 212 213 214 215 216 217 218 219 220 221 222 223 224 225 226 227 228 229 230 231 232 233 234 235 236 237 238 239 240 241 242 243 244 245 246 247 248 249 250 251 252 253 254 255 256 257 258 259 260 261 262 263 264 265 266 267 268 269 270 271 272 273 274 275 276 277 278 279 280 281 282 283 284 285 286 287 288 289 290 291 292 293 294 295 296 297 298 299 300 301 302 303 304 305 306 307 308 309 310 311 312 313 314 315 316 317 318 319 </DataArray>
<DataArray type="Int32" Name="offsets" format="ascii">