<?xml version="1.0"?>
<VTKFile type="UnstructuredGrid" version="0.1" byte_order="LittleEndian">
<UnstructuredGrid>
<Piece NumberOfPoints="93" NumberOfCells="93">
<PointData Vectors="Particles">
<DataArray type="Float32" Name="Mass" NumberOfComponents="1" >
1.41117e-08 1.41117e-08 1.41117e-08 1.41117e-08 1.41117e-08 1.41117e-08 1.41117e-08 1.41117e-08 1.41117e-08 1.41117e-08 1.41117e-08 1.41117e-08 1.41117e-08 1.41117e-08 1.41117e-08 1.41117e-08 1.41117e-08 1.41117e-08 1.41117e-08 1.41117e-08 1.41117e-08 1.41117e-08 1.41117e-08 1.41117e-08 1.41117e-08 1.41117e-08 1.41117e-08 1.41117e-08 1.41117e-08 1.41117e-08 1.41117e-08 1.41117e-08 1.41117e-08 1.41117e-08 1.41117e-08 1.41117e-08 1.41117e-08 1.41117e-08 1.41117e-08 1.41117e-08 1.41117e-08 1.41117e-08 1.41117e-08 1.41117e-08 1.41117e-08 1.41117e-08 1.41117e-08 1.41117e-08 1.41117e-08 1.41117e-08 1.41117e-08 1.41117e-08 1.41117e-08 1.41117e-08 1.41117e-08 1.41117e-08 1.41117e-08 1.41117e-08 1.41117e-08 1.41117e-08 1.41117e-08 1.41117e-08 1.41117e-08 1.41117e-08 1.41117e-08 1.41117e-08 1.41117e-08 1.41117e-08 1.41117e-08 1.41117e-08 1.41117e-08 1.41117e-08 1.41117e-08 1.41117e-08 1.41117e-08 1.41117e-08 1.41117e-08 1.41117e-08 1.41117e-08 1.41117e-08 1.41117e-08 1.41117e-08 1.41117e-08 1.41117e-08 1.41117e-08 1.41117e-08 1.41117e-08 1.41117e-08 1.41117e-08 1.41117e-08 1.41117e-08 1.41117e-08 1.41117e-08 
</DataArray>
<DataArray type="Float32" Name="Radius" NumberOfComponents="1" >
0.00015 0.00015 0.00015 0.00015 0.00015 0.00015 0.00015 0.00015 0.00015 0.00015 0.00015 0.00015 0.00015 0.00015 0.00015 0.00015 0.00015 0.00015 0.00015 0.00015 0.00015 0.00015 0.00015 0.00015 0.00015 0.00015 0.00015 0.00015 0.00015 0.00015 0.00015 0.00015 0.00015 0.00015 0.00015 0.00015 0.00015 0.00015 0.00015 0.00015 0.00015 0.00015 0.00015 0.00015 0.00015 0.00015 0.00015 0.00015 0.00015 0.00015 0.00015 0.00015 0.00015 0.00015 0.00015 0.00015 0.00015 0.00015 0.00015 0.00015 0.00015 0.00015 0.00015 0.00015 0.00015 0.00015 0.00015 0.00015 0.00015 0.00015 0.00015 0.00015 0.00015 0.00015 0.00015 0.00015 0.00015 0.00015 0.00015 0.00015 0.00015 0.00015 0.00015 0.00015 0.00015 0.00015 0.00015 0.00015 0.00015 0.00015 0.00015 0.00015 0.00015 
</DataArray>
<DataArray type="Float32" Name="Velocity" NumberOfComponents="3" >
0.0198481 -7.41798e-05 -0.0368796 0.0202653 2.36839e-05 -0.0374995 0.0192006 0.000118058 -0.0355277 0.0203904 -8.4504e-05 -0.0375954 0.0206084 -9.8426e-05 -0.03786 0.020773 2.00683e-05 -0.0381956 0.0205038 8.2491e-05 -0.0376437 0.0207737 5.89191e-05 -0.038143 0.019469 0.000132725 -0.0356499 0.0209977 -9.094e-05 -0.0384611 0.0187595 0.000156885 -0.0343628 0.021177 -3.32118e-05 -0.0387573 0.0192246 0.000149761 -0.0351238 0.0165825 0.00025818 -0.030686 0.0213108 -5.69174e-05 -0.038921 0.0194731 0.000171805 -0.0354164 0.0181312 0.000193989 -0.0330399 0.0216216 -8.11527e-05 -0.0390554 0.0149823 0.000273685 -0.0278552 0.0217072 -6.93679e-05 -0.0391398 0.0217146 -6.37817e-05 -0.0391462 0.0168094 0.00025748 -0.0305809 0.016732 0.000262688 -0.0304321 0.0214345 9.53946e-05 -0.0384913 0.0188271 0.000256811 -0.0337983 0.021782 -2.99839e-05 -0.0390656 0.0217541 -9.20928e-05 -0.0389266 0.0187942 0.000265665 -0.0335641 0.0218186 -3.29619e-05 -0.039058 0.0218458 -5.31231e-05 -0.0391006 0.0217579 2.24254e-05 -0.0389316 0.0206286 0.000205446 -0.0366686 0.0216926 8.63263e-05 -0.0387342 0.0176753 0.000278873 -0.0316296 0.021882 -3.35561e-05 -0.0389719 0.0213839 0.000145235 -0.0379347 0.021894 -7.22687e-05 -0.0389333 0.0218524 -8.86635e-05 -0.0388058 0.0204062 0.000225498 -0.0360245 0.0218973 -3.56818e-05 -0.0389046 0.0218213 3.62581e-05 -0.0387662 0.020998 0.000195073 -0.0370584 0.0215047 0.000135006 -0.0380471 0.0213866 0.000151136 -0.0377987 0.0173846 0.000285119 -0.0307414 0.0195776 0.000259502 -0.0343646 0.0161278 0.000304389 -0.0287584 0.0208383 0.000205493 -0.0366467 0.0178406 0.000282333 -0.0313732 0.0126082 0.000397317 -0.0234587 0.0217219 -0.000133322 -0.0382251 0.0212494 0.000171012 -0.0373679 0.0197846 0.000255278 -0.0345559 0.0217138 0.000104333 -0.0382857 0.0188909 0.000272332 -0.0329612 0.0199069 0.000253195 -0.0347171 0.0217488 3.41416e-05 -0.0383006 0.0109019 0.000425422 -0.0207712 0.0213361 0.000157408 -0.0374702 0.0216782 6.90123e-05 -0.0381386 0.0138426 0.000372909 -0.0249696 0.0200341 0.000257669 -0.0348221 0.0116835 0.000444996 -0.0218444 0.0153943 0.000319359 -0.0270628 0.0166901 0.000302855 -0.0291187 0.0201591 0.000255522 -0.0350252 0.0177656 0.000294148 -0.0307822 0.0101462 0.000459286 -0.019383 0.0132648 0.000388624 -0.023758 0.0177092 0.000300646 -0.030609 0.0100462 0.00046677 -0.0191246 0.0176251 0.000307584 -0.0303968 0.01565 0.000311956 -0.0271908 0.0109661 0.000456953 -0.0204302 0.016022 0.000309143 -0.0277843 0.0174686 0.000314991 -0.0300781 0.0117052 0.000434334 -0.0213249 0.0166282 0.000313186 -0.0286974 0.010397 0.000467808 -0.0194141 0.00980145 0.00048046 -0.0184891 0.00878542 0.000485544 -0.0168863 0.0093367 0.000488289 -0.0177275 0.00876685 0.000500339 -0.016294 0.0107094 0.00036452 -0.0189319 0.00837089 0.000433767 -0.0152824 0.00554957 0.000500586 -0.0108474 0.00589095 0.000445745 -0.0110982 0.00562357 0.000440642 -0.0106308 0.00491325 0.000463098 -0.00963375 0.00374971 0.000431336 -0.00751297 0.00349876 0.000478668 -0.00706712 0 0 0 0 0 0 
</DataArray>
<DataArray type="Float32" Name="Force" NumberOfComponents="3" >
-3.20483e-11 1.1096e-11 5.26963e-11 -2.00973e-11 1.39285e-11 6.70253e-11 -2.7848e-11 1.26362e-11 6.32201e-11 -1.35747e-11 1.64267e-11 7.15375e-11 -1.68659e-11 1.65038e-11 6.71861e-11 -2.28658e-11 1.28847e-11 6.62106e-11 -2.08969e-11 1.23308e-11 6.92954e-11 -2.48336e-11 1.23972e-11 6.5702e-11 -1.93015e-11 1.11773e-11 7.22571e-11 -3.03831e-11 1.40495e-11 5.29763e-11 -1.73865e-11 1.16512e-11 7.72441e-11 -3.61495e-11 1.16771e-11 4.83705e-11 -2.73928e-11 1.03885e-11 6.93902e-11 -2.27941e-11 1.84587e-11 5.51696e-11 -3.73189e-11 1.16442e-11 4.21422e-11 -4.1567e-11 8.96333e-12 6.02483e-11 -3.16486e-11 9.3535e-12 7.18453e-11 -3.15082e-11 1.09845e-11 2.37426e-11 -8.87668e-12 2.57774e-12 5.42362e-11 -3.16653e-11 1.12016e-11 2.1053e-11 -3.21798e-11 1.03493e-11 2.19779e-11 -4.49903e-11 7.4354e-12 6.61401e-11 -4.5475e-11 7.33988e-12 6.61346e-11 -3.83218e-11 7.21251e-12 2.82527e-11 -5.65848e-11 5.72403e-12 5.48662e-11 -3.15826e-11 1.21955e-11 1.65455e-11 -2.88664e-11 1.40968e-11 1.27198e-11 -5.28291e-11 5.72583e-12 5.22961e-11 -2.77783e-11 1.28002e-11 1.1918e-11 -2.6863e-11 1.37747e-11 1.06221e-11 -3.01543e-11 1.1461e-11 1.41907e-11 -4.28927e-11 7.27118e-12 3.25915e-11 -2.98864e-11 9.89792e-12 1.2558e-11 -6.27913e-11 7.00042e-12 5.49829e-11 -1.57618e-11 1.55425e-11 -7.04026e-13 -2.50839e-11 1.00928e-11 7.22225e-12 -1.11244e-11 1.63471e-11 -4.94801e-12 -8.96345e-12 1.67045e-11 -6.47309e-12 -4.0593e-11 7.94432e-12 2.36843e-11 -7.81987e-12 1.64679e-11 -7.40796e-12 -1.1292e-11 1.47224e-11 -5.54246e-12 -2.82206e-11 8.92557e-12 8.38109e-12 -1.15225e-11 1.13086e-11 -6.55131e-12 -1.31637e-11 1.0508e-11 -5.0766e-12 -6.74519e-11 8.44601e-12 5.42435e-11 -4.54868e-11 6.63089e-12 2.96739e-11 -6.82585e-11 9.38009e-12 5.38098e-11 -2.08131e-11 7.69381e-12 -5.75601e-13 -6.23911e-11 8.19101e-12 4.78414e-11 -1.86839e-11 3.91202e-12 6.48578e-11 1.45532e-11 1.7987e-11 -1.84581e-11 -2.93946e-12 8.83476e-12 -1.15898e-11 -2.90729e-11 5.30382e-12 1.06361e-11 1.07296e-11 1.25811e-11 -1.93861e-11 -3.95777e-11 5.80966e-12 2.27963e-11 -2.32255e-11 4.34997e-12 9.3277e-12 1.84269e-11 1.3278e-11 -1.96546e-11 2.05989e-11 -7.767e-12 4.77703e-11 6.91687e-12 8.25435e-12 -1.45042e-11 2.25039e-11 1.1266e-11 -2.0931e-11 -6.11698e-11 1.32476e-11 6.60351e-11 -1.09802e-11 2.3035e-12 6.60304e-12 -3.39721e-11 6.53237e-12 6.55495e-11 -6.51603e-11 1.04416e-11 5.72273e-11 -5.33122e-11 8.32536e-12 4.09765e-11 -5.98284e-12 1.9473e-12 3.50851e-12 -3.90736e-11 6.24708e-12 3.48872e-11 1.95357e-11 -2.39994e-12 5.28963e-11 -6.33218e-11 1.36293e-11 7.06592e-11 -3.63554e-11 6.11482e-12 3.73765e-11 9.84678e-12 9.34715e-13 5.77474e-11 -3.18693e-11 5.82995e-12 3.78771e-11 -4.85172e-11 8.32879e-12 4.58621e-11 -3.90506e-11 1.03662e-11 6.61731e-11 -4.68593e-11 8.24391e-12 4.56366e-11 -3.06277e-11 6.04838e-12 4.02414e-11 -5.10756e-11 1.53339e-11 7.14149e-11 -3.85763e-11 8.25711e-12 4.42271e-11 -3.73201e-11 1.13918e-11 6.68215e-11 -2.72504e-11 8.30751e-12 6.28771e-11 9.17828e-12 1.9023e-12 5.32173e-11 -1.92421e-11 6.60312e-12 5.99907e-11 -3.02848e-11 1.5462e-11 7.13486e-11 -4.28681e-11 8.24612e-12 5.98357e-11 -3.5788e-11 1.18374e-11 7.25345e-11 -4.48126e-12 9.42218e-12 4.40095e-11 -1.9192e-11 1.26224e-11 6.18792e-11 -1.7803e-11 1.1911e-11 5.87654e-11 -6.03918e-12 1.03762e-11 4.31937e-11 7.44052e-13 1.4218e-11 3.54294e-11 1.67213e-11 1.97154e-11 3.18165e-11 2.11898e-11 9.06249e-12 7.63117e-12 2.04924e-11 9.3734e-12 7.05732e-12 
</DataArray>
<DataArray type="Float32" Name="Active" NumberOfComponents="1" >
0 0 0 0 0 0 0 0 0 0 0 0 0 0 0 0 0 0 0 0 0 0 0 0 0 0 0 0 0 0 0 0 0 0 0 0 0 0 0 0 0 0 0 0 0 0 0 0 0 0 0 0 0 0 0 0 0 0 0 0 0 0 0 0 0 0 0 0 0 0 0 0 0 0 0 0 0 0 0 0 0 0 0 0 0 0 0 0 0 0 0 0 0 
</DataArray>
</PointData>
<CellData /> 
<Cells>
<DataArray type="Int32" Name="connectivity" format="ascii">
0 1 2 3 4 5 6 7 8 9 10 11 12 13 14 15 16 17 18 19 20 21 22 23 24 25 26 27 28 29 30 31 32 33 34 35 36 37 38 39 40 41 42 43 44 45 46 47 48 49 50 51 52 53 54 55 56 57 58 59 60 61 62 63 64 65 66 67 68 69 70 71 72 73 74 75 76 77 78 79 80 81 82 83 84 85 86 87 88 89 90 91 92 </DataArray>
<DataArray type="Int32" Name="offsets" format="ascii">
1 2 3 4 5 6 7 8 9 10 11 12 13 14 15 16 17 18 19 20 21 22 23 24 25 26 27 28 29 30 31 32 33 34 35 36 37 38 39 40 41 42 43 44 45 46 47 48 49 50 51 52 53 54 55 56 57 58 59 60 61 62 63 64 65 66 67 68 69 70 71 72 73 74 75 76 77 78 79 80 81 82 83 84 85 86 87 88 89 90 91 92 93 </DataArray>
<DataArray type="UInt8" Name="types" format="ascii">
1 1 1 1 1 1 1 1 1 1 1 1 1 1 1 1 1 1 1 1 1 1 1 1 1 1 1 1 1 1 1 1 1 1 1 1 1 1 1 1 1 1 1 1 1 1 1 1 1 1 1 1 1 1 1 1 1 1 1 1 1 1 1 1 1 1 1 1 1 1 1 1 1 1 1 1 1 1 1 1 1 1 1 1 1 1 1 1 1 1 1 1 1 </DataArray>
</Cells>
<Points>
<DataArray type="Float32" Name="Position" NumberOfComponents="3" >
0.0208469 0.000586893 -0.0226072 0.0210732 -0.00040242 -0.0224981 0.0209132 -0.00155713 -0.0226241 0.0212432 0.000655034 -0.0224334 0.0214379 0.000712428 -0.0223314 0.021452 -0.000357275 -0.0222844 0.021436 -0.000975746 -0.0223258 0.021514 -0.000679381 -0.0222861 0.0213653 -0.00193998 -0.0223592 0.0217101 0.000498824 -0.0221878 0.0212895 -0.00227143 -0.0224427 0.0218074 -2.34852e-06 -0.0221051 0.0214501 -0.00214656 -0.0223166 0.0208183 -0.00295526 -0.0227148 0.021941 0.000156674 -0.0220448 0.0217521 -0.00219285 -0.0221902 0.021475 -0.00278056 -0.0223358 0.0224048 0.000336697 -0.0217982 0.020927 -0.00360669 -0.0226492 0.0224908 0.000262057 -0.0217457 0.0224865 0.000216931 -0.021707 0.0216202 -0.00338077 -0.0222476 0.0216513 -0.00341968 -0.0222502 0.0225456 -0.000974366 -0.0216961 0.0222031 -0.00285118 -0.0219234 0.0227271 9.62762e-06 -0.021611 0.0227697 0.00045025 -0.0215608 0.022388 -0.00293238 -0.0218323 0.0228031 3.95895e-05 -0.0215364 0.0228241 0.000183367 -0.0215376 0.022813 -0.000345991 -0.0215518 0.0227362 -0.00195308 -0.0216059 0.0228482 -0.000799265 -0.0215103 0.0222871 -0.00334585 -0.0218732 0.0230774 6.57375e-05 -0.0214114 0.0230703 -0.00124742 -0.0214067 0.0231181 0.000315976 -0.0213647 0.0231577 0.000419641 -0.0213328 0.023021 -0.00215922 -0.0214877 0.0232105 7.78314e-05 -0.0213455 0.0232054 -0.000376631 -0.0213597 0.0231821 -0.001756 -0.0213945 0.0232684 -0.00111129 -0.0212859 0.0232807 -0.00126339 -0.0212834 0.0227058 -0.0035888 -0.0216562 0.0231114 -0.00272166 -0.0213917 0.022448 -0.00397572 -0.0217935 0.0233116 -0.00189554 -0.0212851 0.0229303 -0.00345693 -0.0215059 0.0214797 -0.00458911 -0.0223121 0.0236498 0.000607545 -0.0211102 0.0235713 -0.00140348 -0.0211656 0.0234462 -0.00260135 -0.0212371 0.0236327 -0.00075387 -0.0211203 0.0233519 -0.00306535 -0.021261 0.0235621 -0.00251215 -0.0211556 0.0237242 -0.000356037 -0.0210668 0.0210863 -0.00482476 -0.0225578 0.0237305 -0.00122255 -0.0210621 0.0237867 -0.000545826 -0.0209906 0.0224079 -0.00459765 -0.0218199 0.0238324 -0.00237171 -0.0210003 0.0218359 -0.00496908 -0.0221405 0.0230213 -0.00429767 -0.021471 0.0233214 -0.0039408 -0.0212867 0.0239425 -0.00225325 -0.0209707 0.0236555 -0.00352649 -0.0211069 0.0212441 -0.00508041 -0.022465 0.0226773 -0.00482366 -0.0216863 0.0237981 -0.00353633 -0.0210644 0.0214029 -0.00516736 -0.0223895 0.0238896 -0.00355654 -0.020974 0.0234839 -0.00426296 -0.0212069 0.0220952 -0.00520129 -0.0220093 0.0235886 -0.00415031 -0.0211644 0.0239901 -0.00360482 -0.0209615 0.0224817 -0.00514789 -0.0217816 0.0238658 -0.00394604 -0.0210331 0.02211 -0.00533232 -0.0219686 0.0219425 -0.0054064 -0.0220801 0.0214533 -0.00546031 -0.022333 0.0218338 -0.00547068 -0.0221426 0.0224377 -0.00576245 -0.0218179 0.0234311 -0.00550614 -0.021256 0.0230474 -0.00595754 -0.0214836 0.0219825 -0.00629515 -0.0220662 0.0226051 -0.00638088 -0.0217056 0.0225772 -0.00642678 -0.021739 0.0220555 -0.0064474 -0.0220171 0.0217912 -0.00662177 -0.0221594 0.0214351 -0.0065711 -0.0223654 0.0207964 -0.00660479 -0.0227115 0.0207949 -0.00663314 -0.0227136 
</DataArray>
</Points>
</Piece>
</UnstructuredGrid>
</VTKFile>
