<?xml version="1.0"?>
<VTKFile type="UnstructuredGrid" version="0.1" byte_order="LittleEndian">
<UnstructuredGrid>
<Piece NumberOfPoints="38" NumberOfCells="38">
<PointData Vectors="Particles">
<DataArray type="Float32" Name="Mass" NumberOfComponents="1" >
1.41117e-08 1.41117e-08 1.41117e-08 1.41117e-08 1.41117e-08 1.41117e-08 1.41117e-08 1.41117e-08 1.41117e-08 1.41117e-08 1.41117e-08 1.41117e-08 1.41117e-08 1.41117e-08 1.41117e-08 1.41117e-08 1.41117e-08 1.41117e-08 1.41117e-08 1.41117e-08 1.41117e-08 1.41117e-08 1.41117e-08 1.41117e-08 1.41117e-08 1.41117e-08 1.41117e-08 1.41117e-08 1.41117e-08 1.41117e-08 1.41117e-08 1.41117e-08 1.41117e-08 1.41117e-08 1.41117e-08 1.41117e-08 1.41117e-08 1.41117e-08 
</DataArray>
<DataArray type="Float32" Name="Radius" NumberOfComponents="1" >
0.00015 0.00015 0.00015 0.00015 0.00015 0.00015 0.00015 0.00015 0.00015 0.00015 0.00015 0.00015 0.00015 0.00015 0.00015 0.00015 0.00015 0.00015 0.00015 0.00015 0.00015 0.00015 0.00015 0.00015 0.00015 0.00015 0.00015 0.00015 0.00015 0.00015 0.00015 0.00015 0.00015 0.00015 0.00015 0.00015 0.00015 0.00015 
</DataArray>
<DataArray type="Float32" Name="Velocity" NumberOfComponents="3" >
7.52194e-05 0.000110761 -0.0241339 0.000141961 8.99701e-05 -0.0243478 0.000126013 8.41056e-05 -0.0247705 4.43122e-05 0.000211335 -0.0248273 5.3412e-05 0.000216788 -0.0250143 8.30462e-05 0.000123364 -0.0253359 1.68107e-05 0.000193303 -0.0251332 9.06558e-05 0.000110254 -0.0253388 1.37026e-05 0.00019263 -0.0250749 8.20072e-05 0.000119011 -0.0253537 0.000111256 0.00018133 -0.0253952 0.000130377 9.21633e-05 -0.0255256 9.53654e-05 0.000112869 -0.0256588 7.68296e-05 0.000201533 -0.0255407 0.000150816 8.22939e-05 -0.025749 0.000188328 5.5019e-05 -0.0257777 0.000183436 6.49761e-05 -0.0257809 0.000181545 7.1486e-05 -0.0260555 8.30748e-05 0.000194662 -0.0260333 4.539e-05 0.000202288 -0.0262506 6.98212e-05 0.000206928 -0.0262878 0.000187316 4.03976e-05 -0.0265153 9.1445e-05 0.000184012 -0.0269 0.000159954 9.7097e-05 -0.0271993 0.00018059 7.51181e-05 -0.0270562 0.000104826 0.000171881 -0.0271412 0.000105002 0.000170639 -0.0272325 0.000106269 0.000167782 -0.0273482 0.000131465 0.000119478 -0.0275447 3.45622e-05 0.000190725 -0.0273536 0.000122793 0.000130007 -0.0278005 5.24733e-05 0.000195809 -0.0276455 0.000195399 5.88053e-05 -0.0281681 9.71432e-05 0.000184401 -0.0286937 0.000177226 9.39149e-05 -0.0288655 0.000152591 0.000113391 -0.0290531 0.000118454 0.000138066 -0.0294413 3.36424e-05 0.000190115 -0.0293328 
</DataArray>
<DataArray type="Float32" Name="Force" NumberOfComponents="3" >
-5.7925e-12 -1.19007e-11 1.93749e-11 2.77035e-12 -1.049e-11 2.14011e-11 9.43256e-13 -8.11913e-12 2.21521e-11 1.17725e-12 -8.12534e-12 1.92615e-11 9.99709e-14 -9.90944e-12 2.07921e-11 2.79192e-12 -6.76012e-12 2.04312e-11 3.47854e-12 -8.37689e-12 1.99025e-11 3.32288e-12 -5.58613e-12 1.96532e-11 3.89592e-12 -8.19565e-12 2.01688e-11 3.3016e-12 -6.2542e-12 2.01977e-11 -2.47474e-12 -9.46728e-12 2.09511e-11 1.59587e-12 -4.19762e-12 2.29224e-11 4.55254e-12 -4.92612e-12 1.98242e-11 1.40926e-12 -9.29465e-12 2.17582e-11 -3.2961e-13 -4.72407e-12 2.17283e-11 4.41776e-12 -1.11269e-11 2.59357e-11 1.9386e-12 -1.087e-11 2.60456e-11 -1.25539e-12 -1.05556e-11 2.63683e-11 4.5917e-13 -8.11056e-12 2.30735e-11 -1.48404e-12 -1.24441e-11 1.97956e-11 -1.23532e-12 -1.24702e-11 2.05789e-11 3.34648e-12 -7.96206e-12 2.15274e-11 -1.70678e-12 -6.3335e-12 2.13926e-11 -1.41344e-13 -4.60933e-12 2.99246e-11 -2.76145e-12 -8.45871e-12 3.19167e-11 -4.86516e-12 -1.34172e-11 2.47843e-11 -4.97996e-12 -1.35293e-11 2.46223e-11 -5.33726e-12 -1.41719e-11 2.45139e-11 5.71358e-12 -7.15644e-12 2.39055e-11 -8.04934e-13 -1.20352e-11 1.84463e-11 1.35364e-12 -1.12073e-11 2.37567e-11 -3.08276e-12 -1.2129e-11 1.88261e-11 -2.99492e-12 -8.64949e-12 2.67676e-11 -3.26557e-12 -8.31624e-12 1.78388e-11 -2.5759e-12 -5.63601e-12 2.83138e-11 1.24254e-13 -8.83542e-12 2.41097e-11 -4.17723e-12 -1.07865e-11 2.20632e-11 1.8859e-12 -7.63632e-12 1.66015e-11 
</DataArray>
<DataArray type="Float32" Name="Active" NumberOfComponents="1" >
1 1 1 1 1 1 1 1 1 1 1 1 1 1 1 1 1 1 1 1 1 1 1 1 1 1 1 1 1 1 1 1 1 1 1 1 1 1 
</DataArray>
</PointData>
<CellData /> 
<Cells>
<DataArray type="Int32" Name="connectivity" format="ascii">
0 1 2 3 4 5 6 7 8 9 10 11 12 13 14 15 16 17 18 19 20 21 22 23 24 25 26 27 28 29 30 31 32 33 34 35 36 37 </DataArray>
<DataArray type="Int32" Name="offsets" format="ascii">
1 2 3 4 5 6 7 8 9 10 11 12 13 14 15 16 17 18 19 20 21 22 23 24 25 26 27 28 29 30 31 32 33 34 35 36 37 38 </DataArray>
<DataArray type="UInt8" Name="types" format="ascii">
1 1 1 1 1 1 1 1 1 1 1 1 1 1 1 1 1 1 1 1 1 1 1 1 1 1 1 1 1 1 1 1 1 1 1 1 1 1 </DataArray>
</Cells>
<Points>
<DataArray type="Float32" Name="Position" NumberOfComponents="3" >
0.00619519 0.00437869 0.0592766 0.00689961 0.00307735 0.0590795 0.00659339 0.00364445 0.05883 0.00100796 0.00744078 0.058772 0.00133614 0.00738466 0.0586469 0.00584817 0.00463482 0.0585125 -0.000115573 0.0074728 0.0585708 0.00606791 0.00433171 0.0585157 -0.00020894 0.00747574 0.0586023 0.00591061 0.00455387 0.0585141 0.00446899 0.0059815 0.0584494 0.00643412 0.0037403 0.0583551 0.00601386 0.00434986 0.0583186 0.0026793 0.00694583 0.0583111 0.00662901 0.00335522 0.0582523 0.00723901 0.00145565 0.0581685 0.00713735 0.00186999 0.0581871 0.00699939 0.00230999 0.0580335 0.00289491 0.00680273 0.0580058 0.000982492 0.00728966 0.0578763 0.0019982 0.00708163 0.0578532 0.00721159 0.00105074 0.0577491 0.00350016 0.00641689 0.0575134 0.00635818 0.00352026 0.0573194 0.00677511 0.00264506 0.057348 0.00410679 0.00599424 0.0573448 0.00412221 0.00597221 0.0572857 0.00420234 0.00590427 0.0572132 0.00576114 0.0043589 0.0571444 0.000629181 0.0072071 0.0571788 0.00529361 0.00486499 0.0569773 0.0012529 0.00711005 0.0569938 0.00684114 0.00201881 0.0566918 0.00347819 0.00620226 0.0563921 0.00628081 0.00324893 0.0562819 0.00559579 0.00430889 0.0562207 0.00461394 0.00529373 0.0559219 0.000458416 0.00701041 0.0559486 
</DataArray>
</Points>
</Piece>
</UnstructuredGrid>
</VTKFile>
