<?xml version="1.0"?>
<VTKFile type="UnstructuredGrid" version="0.1" byte_order="LittleEndian">
<UnstructuredGrid>
<Piece NumberOfPoints="378" NumberOfCells="378">
<PointData Vectors="Particles">
<DataArray type="Float32" Name="Mass" NumberOfComponents="1" >
1.41117e-08 1.41117e-08 1.41117e-08 1.41117e-08 1.41117e-08 1.41117e-08 1.41117e-08 1.41117e-08 1.41117e-08 1.41117e-08 1.41117e-08 1.41117e-08 1.41117e-08 1.41117e-08 1.41117e-08 1.41117e-08 1.41117e-08 1.41117e-08 1.41117e-08 1.41117e-08 1.41117e-08 1.41117e-08 1.41117e-08 1.41117e-08 1.41117e-08 1.41117e-08 1.41117e-08 1.41117e-08 1.41117e-08 1.41117e-08 1.41117e-08 1.41117e-08 1.41117e-08 1.41117e-08 1.41117e-08 1.41117e-08 1.41117e-08 1.41117e-08 1.41117e-08 1.41117e-08 1.41117e-08 1.41117e-08 1.41117e-08 1.41117e-08 1.41117e-08 1.41117e-08 1.41117e-08 1.41117e-08 1.41117e-08 1.41117e-08 1.41117e-08 1.41117e-08 1.41117e-08 1.41117e-08 1.41117e-08 1.41117e-08 1.41117e-08 1.41117e-08 1.41117e-08 1.41117e-08 1.41117e-08 1.41117e-08 1.41117e-08 1.41117e-08 1.41117e-08 1.41117e-08 1.41117e-08 1.41117e-08 1.41117e-08 1.41117e-08 1.41117e-08 1.41117e-08 1.41117e-08 1.41117e-08 1.41117e-08 1.41117e-08 1.41117e-08 1.41117e-08 1.41117e-08 1.41117e-08 1.41117e-08 1.41117e-08 1.41117e-08 1.41117e-08 1.41117e-08 1.41117e-08 1.41117e-08 1.41117e-08 1.41117e-08 1.41117e-08 1.41117e-08 1.41117e-08 1.41117e-08 1.41117e-08 1.41117e-08 1.41117e-08 1.41117e-08 1.41117e-08 1.41117e-08 1.41117e-08 1.41117e-08 1.41117e-08 1.41117e-08 1.41117e-08 1.41117e-08 1.41117e-08 1.41117e-08 1.41117e-08 1.41117e-08 1.41117e-08 1.41117e-08 1.41117e-08 1.41117e-08 1.41117e-08 1.41117e-08 1.41117e-08 1.41117e-08 1.41117e-08 1.41117e-08 1.41117e-08 1.41117e-08 1.41117e-08 1.41117e-08 1.41117e-08 1.41117e-08 1.41117e-08 1.41117e-08 1.41117e-08 1.41117e-08 1.41117e-08 1.41117e-08 1.41117e-08 1.41117e-08 1.41117e-08 1.41117e-08 1.41117e-08 1.41117e-08 1.41117e-08 1.41117e-08 1.41117e-08 1.41117e-08 1.41117e-08 1.41117e-08 1.41117e-08 1.41117e-08 1.41117e-08 1.41117e-08 1.41117e-08 1.41117e-08 1.41117e-08 1.41117e-08 1.41117e-08 1.41117e-08 1.41117e-08 1.41117e-08 1.41117e-08 1.41117e-08 1.41117e-08 1.41117e-08 1.41117e-08 1.41117e-08 1.41117e-08 1.41117e-08 1.41117e-08 1.41117e-08 1.41117e-08 1.41117e-08 1.41117e-08 1.41117e-08 1.41117e-08 1.41117e-08 1.41117e-08 1.41117e-08 1.41117e-08 1.41117e-08 1.41117e-08 1.41117e-08 1.41117e-08 1.41117e-08 1.41117e-08 1.41117e-08 1.41117e-08 1.41117e-08 1.41117e-08 1.41117e-08 1.41117e-08 1.41117e-08 1.41117e-08 1.41117e-08 1.41117e-08 1.41117e-08 1.41117e-08 1.41117e-08 1.41117e-08 1.41117e-08 1.41117e-08 1.41117e-08 1.41117e-08 1.41117e-08 1.41117e-08 1.41117e-08 1.41117e-08 1.41117e-08 1.41117e-08 1.41117e-08 1.41117e-08 1.41117e-08 1.41117e-08 1.41117e-08 1.41117e-08 1.41117e-08 1.41117e-08 1.41117e-08 1.41117e-08 1.41117e-08 1.41117e-08 1.41117e-08 1.41117e-08 1.41117e-08 1.41117e-08 1.41117e-08 1.41117e-08 1.41117e-08 1.41117e-08 1.41117e-08 1.41117e-08 1.41117e-08 1.41117e-08 1.41117e-08 1.41117e-08 1.41117e-08 1.41117e-08 1.41117e-08 1.41117e-08 1.41117e-08 1.41117e-08 1.41117e-08 1.41117e-08 1.41117e-08 1.41117e-08 1.41117e-08 1.41117e-08 1.41117e-08 1.41117e-08 1.41117e-08 1.41117e-08 1.41117e-08 1.41117e-08 1.41117e-08 1.41117e-08 1.41117e-08 1.41117e-08 1.41117e-08 1.41117e-08 1.41117e-08 1.41117e-08 1.41117e-08 1.41117e-08 1.41117e-08 1.41117e-08 1.41117e-08 1.41117e-08 1.41117e-08 1.41117e-08 1.41117e-08 1.41117e-08 1.41117e-08 1.41117e-08 1.41117e-08 1.41117e-08 1.41117e-08 1.41117e-08 1.41117e-08 1.41117e-08 1.41117e-08 1.41117e-08 1.41117e-08 1.41117e-08 1.41117e-08 1.41117e-08 1.41117e-08 1.41117e-08 1.41117e-08 1.41117e-08 1.41117e-08 1.41117e-08 1.41117e-08 1.41117e-08 1.41117e-08 1.41117e-08 1.41117e-08 1.41117e-08 1.41117e-08 1.41117e-08 1.41117e-08 1.41117e-08 1.41117e-08 1.41117e-08 1.41117e-08 1.41117e-08 1.41117e-08 1.41117e-08 1.41117e-08 1.41117e-08 1.41117e-08 1.41117e-08 1.41117e-08 1.41117e-08 1.41117e-08 1.41117e-08 1.41117e-08 1.41117e-08 1.41117e-08 1.41117e-08 1.41117e-08 1.41117e-08 1.41117e-08 1.41117e-08 1.41117e-08 1.41117e-08 1.41117e-08 1.41117e-08 1.41117e-08 1.41117e-08 1.41117e-08 1.41117e-08 1.41117e-08 1.41117e-08 1.41117e-08 1.41117e-08 1.41117e-08 1.41117e-08 1.41117e-08 1.41117e-08 1.41117e-08 1.41117e-08 1.41117e-08 1.41117e-08 1.41117e-08 1.41117e-08 1.41117e-08 1.41117e-08 1.41117e-08 1.41117e-08 1.41117e-08 1.41117e-08 1.41117e-08 1.41117e-08 1.41117e-08 1.41117e-08 1.41117e-08 1.41117e-08 1.41117e-08 1.41117e-08 1.41117e-08 1.41117e-08 1.41117e-08 1.41117e-08 1.41117e-08 1.41117e-08 1.41117e-08 1.41117e-08 1.41117e-08 1.41117e-08 1.41117e-08 1.41117e-08 1.41117e-08 1.41117e-08 1.41117e-08 1.41117e-08 1.41117e-08 1.41117e-08 1.41117e-08 1.41117e-08 1.41117e-08 1.41117e-08 1.41117e-08 1.41117e-08 
</DataArray>
<DataArray type="Float32" Name="Radius" NumberOfComponents="1" >
0.00015 0.00015 0.00015 0.00015 0.00015 0.00015 0.00015 0.00015 0.00015 0.00015 0.00015 0.00015 0.00015 0.00015 0.00015 0.00015 0.00015 0.00015 0.00015 0.00015 0.00015 0.00015 0.00015 0.00015 0.00015 0.00015 0.00015 0.00015 0.00015 0.00015 0.00015 0.00015 0.00015 0.00015 0.00015 0.00015 0.00015 0.00015 0.00015 0.00015 0.00015 0.00015 0.00015 0.00015 0.00015 0.00015 0.00015 0.00015 0.00015 0.00015 0.00015 0.00015 0.00015 0.00015 0.00015 0.00015 0.00015 0.00015 0.00015 0.00015 0.00015 0.00015 0.00015 0.00015 0.00015 0.00015 0.00015 0.00015 0.00015 0.00015 0.00015 0.00015 0.00015 0.00015 0.00015 0.00015 0.00015 0.00015 0.00015 0.00015 0.00015 0.00015 0.00015 0.00015 0.00015 0.00015 0.00015 0.00015 0.00015 0.00015 0.00015 0.00015 0.00015 0.00015 0.00015 0.00015 0.00015 0.00015 0.00015 0.00015 0.00015 0.00015 0.00015 0.00015 0.00015 0.00015 0.00015 0.00015 0.00015 0.00015 0.00015 0.00015 0.00015 0.00015 0.00015 0.00015 0.00015 0.00015 0.00015 0.00015 0.00015 0.00015 0.00015 0.00015 0.00015 0.00015 0.00015 0.00015 0.00015 0.00015 0.00015 0.00015 0.00015 0.00015 0.00015 0.00015 0.00015 0.00015 0.00015 0.00015 0.00015 0.00015 0.00015 0.00015 0.00015 0.00015 0.00015 0.00015 0.00015 0.00015 0.00015 0.00015 0.00015 0.00015 0.00015 0.00015 0.00015 0.00015 0.00015 0.00015 0.00015 0.00015 0.00015 0.00015 0.00015 0.00015 0.00015 0.00015 0.00015 0.00015 0.00015 0.00015 0.00015 0.00015 0.00015 0.00015 0.00015 0.00015 0.00015 0.00015 0.00015 0.00015 0.00015 0.00015 0.00015 0.00015 0.00015 0.00015 0.00015 0.00015 0.00015 0.00015 0.00015 0.00015 0.00015 0.00015 0.00015 0.00015 0.00015 0.00015 0.00015 0.00015 0.00015 0.00015 0.00015 0.00015 0.00015 0.00015 0.00015 0.00015 0.00015 0.00015 0.00015 0.00015 0.00015 0.00015 0.00015 0.00015 0.00015 0.00015 0.00015 0.00015 0.00015 0.00015 0.00015 0.00015 0.00015 0.00015 0.00015 0.00015 0.00015 0.00015 0.00015 0.00015 0.00015 0.00015 0.00015 0.00015 0.00015 0.00015 0.00015 0.00015 0.00015 0.00015 0.00015 0.00015 0.00015 0.00015 0.00015 0.00015 0.00015 0.00015 0.00015 0.00015 0.00015 0.00015 0.00015 0.00015 0.00015 0.00015 0.00015 0.00015 0.00015 0.00015 0.00015 0.00015 0.00015 0.00015 0.00015 0.00015 0.00015 0.00015 0.00015 0.00015 0.00015 0.00015 0.00015 0.00015 0.00015 0.00015 0.00015 0.00015 0.00015 0.00015 0.00015 0.00015 0.00015 0.00015 0.00015 0.00015 0.00015 0.00015 0.00015 0.00015 0.00015 0.00015 0.00015 0.00015 0.00015 0.00015 0.00015 0.00015 0.00015 0.00015 0.00015 0.00015 0.00015 0.00015 0.00015 0.00015 0.00015 0.00015 0.00015 0.00015 0.00015 0.00015 0.00015 0.00015 0.00015 0.00015 0.00015 0.00015 0.00015 0.00015 0.00015 0.00015 0.00015 0.00015 0.00015 0.00015 0.00015 0.00015 0.00015 0.00015 0.00015 0.00015 0.00015 0.00015 0.00015 0.00015 0.00015 0.00015 0.00015 0.00015 0.00015 0.00015 0.00015 0.00015 0.00015 0.00015 0.00015 0.00015 0.00015 0.00015 0.00015 0.00015 0.00015 0.00015 0.00015 0.00015 0.00015 0.00015 0.00015 0.00015 0.00015 0.00015 0.00015 0.00015 0.00015 0.00015 0.00015 0.00015 0.00015 0.00015 0.00015 0.00015 0.00015 0.00015 
</DataArray>
<DataArray type="Float32" Name="Velocity" NumberOfComponents="3" >
0.000544929 0.000715776 -0.0427885 0.000229612 0.000616735 -0.0249067 0.000672494 0.000526556 -0.0333702 0.000689039 0.000602162 -0.0354806 0.000657219 0.000583578 -0.0316897 0.000292517 0.000808054 -0.0348545 0.000494422 0.000694142 -0.0315994 0.000592715 0.00046434 -0.0474245 1.92077e-05 0.000215323 -0.0607901 0.0003585 0.000820852 -0.0358833 0.000526741 0.000376284 -0.0507964 0.000177488 0.000704316 -0.0271012 0.000477679 0.000557255 -0.0249772 1.34069e-05 0.000854911 -0.0425928 0.000230048 0.000716098 -0.0284209 0.000648894 0.000525747 -0.0445271 0.000384195 0.000342654 -0.0546779 -4.3807e-05 0.000182818 -0.0610514 0.000596172 0.000716114 -0.0366101 0.000476891 0.00056225 -0.0247895 0.000712526 0.000550204 -0.0384865 -0.000418237 0.000653373 -0.0302984 -0.000194607 0.000321668 -0.0568667 -0.000306119 0.000647483 -0.0294442 9.53157e-05 0.000716034 -0.0268948 0.000538755 0.000734919 -0.0357617 -0.000127965 0.000841451 -0.0379359 0.000126447 0.00029261 -0.0590006 -0.000117853 0.00040716 -0.0565252 0.000664747 0.000591592 -0.0320269 0.00069485 0.000364051 -0.0446297 0.0004903 0.000638663 -0.0464287 0.000505504 0.00060374 -0.0476191 0.000263239 0.000424377 -0.0552099 -0.000241155 0.000831979 -0.0390648 0.000298474 0.000337351 -0.0563366 0.000652408 0.000622717 -0.0348716 -2.60672e-05 0.000570024 -0.0531557 -0.000239251 0.000467245 -0.0536184 -0.000488754 0.000587602 -0.0381722 -5.87935e-05 0.000208552 -0.0607096 -0.000534945 0.000443756 -0.044737 0.000723427 0.000601303 -0.0406162 0.000556206 0.000516108 -0.0481042 0.000643631 0.000545011 -0.0316986 -6.87797e-05 0.000221536 -0.0604669 -3.0796e-05 0.000196438 -0.0609903 0.000557888 0.000730998 -0.0361779 0.000269888 0.000570932 -0.0517036 6.4151e-05 0.000841589 -0.0370178 4.84296e-05 0.000622803 -0.0521916 0.000504747 0.000577518 -0.0481376 -0.000439619 0.000668115 -0.0390806 0.000295446 0.000846948 -0.0375641 0.000277589 0.000358908 -0.0563509 -3.11283e-05 0.00074368 -0.0479001 0.000532056 0.000441769 -0.0499015 -3.83674e-05 0.000818039 -0.0438732 0.000105824 0.000860423 -0.0416742 -6.33201e-05 0.000739836 -0.0278661 0.000692907 0.000455785 -0.0436842 -2.76618e-05 0.000662628 -0.0504972 -0.000401747 0.000601744 -0.0447038 0.000317659 0.000217199 -0.05758 -5.73514e-05 0.000181215 -0.0610215 -4.14698e-05 0.00075254 -0.0287149 0.000242255 0.000179094 -0.0591072 0.000186464 0.000204466 -0.0597571 -0.000257301 0.000799086 -0.0321878 -0.000382173 0.000735545 -0.0414603 0.000608291 0.000594759 -0.0311861 -0.00010982 0.000162688 -0.0605485 -0.00023686 0.00081831 -0.0402158 -0.000483577 0.000578568 -0.0415035 0.000456211 0.000734189 -0.0330427 -0.000123328 0.000268486 -0.0589251 0.00035738 0.000355608 -0.0551189 0.000575582 0.000660713 -0.0312493 0.000238201 0.000849677 -0.0375792 0.000230658 0.000613414 -0.0509713 -1.90082e-05 0.000800966 -0.0450179 0.000397791 0.000727625 -0.0315105 -1.93633e-05 0.000148088 -0.061378 0.000563498 0.000391805 -0.0493902 0.000158543 0.000707167 -0.0270841 -0.000450575 0.000207609 -0.0522999 -6.94048e-05 0.000662959 -0.0501763 0.000560418 0.000632051 -0.0298849 0.000122049 0.000823368 -0.0436056 -0.000387388 0.000561377 -0.0271664 -8.64447e-05 0.000759463 -0.0292746 -0.000437416 0.000275614 -0.0517805 0.000145964 0.000752405 -0.0474302 -0.000524087 0.000530006 -0.0424077 0.000719469 0.000561148 -0.0398249 0.000131257 0.000774498 -0.0310093 0.000575919 0.000745924 -0.0382086 0.000553325 0.000631347 -0.0460461 -0.000103943 0.000859715 -0.0406738 0.000159245 0.000661099 -0.0502687 -0.000297129 0.000740045 -0.0325221 -0.000152922 0.000524381 -0.0534673 0.00059182 0.000714481 -0.0359465 0.00057077 0.000685648 -0.0435562 0.000195194 0.000744338 -0.0474126 -0.000379458 0.000195811 -0.0546571 0.000611636 0.00069195 -0.0389739 0.000142012 0.000136454 -0.0609056 0.00013499 0.000737018 -0.0286215 -0.000393424 0.000401208 -0.0504254 0.000479729 0.000423415 -0.0514728 0.000290268 0.000658802 -0.0484281 -8.93569e-05 0.000518227 -0.0541732 0.000161641 0.000209478 -0.0599808 0.000477778 0.000554978 -0.0245554 0.000585606 0.000470517 -0.0476306 0.000679763 0.000395158 -0.0363354 -6.05895e-05 0.000866101 -0.0406274 -0.00033272 0.000802774 -0.0370097 0.000402982 0.000488592 -0.051703 -0.000222577 0.000781336 -0.0437091 0.000224147 0.000834405 -0.0419311 -0.000374735 0.000755882 -0.0407868 -0.000540861 0.00049363 -0.0419193 -0.000284869 0.000570466 -0.0264605 -0.000442516 0.000341485 -0.0504204 0.000621887 0.000683654 -0.0351773 -0.000310345 0.000197028 -0.0566072 0.000182851 0.000210537 -0.0597265 4.30351e-05 0.00077099 -0.0473086 -0.000242916 0.000374883 -0.0548753 0.000682451 0.00035191 -0.0455493 0.00024692 0.000343626 -0.0570171 0.000144379 0.000203337 -0.0602241 -0.000150066 0.000774019 -0.0301595 -0.000354898 0.000780172 -0.0416324 0.00045272 0.000559998 -0.0256071 -1.6588e-05 0.000749195 -0.0477518 -0.000516644 0.000542855 -0.0416032 0.000123602 0.000789765 -0.0455184 -0.000253606 0.000228562 -0.0574201 -6.13159e-05 0.000408354 -0.056889 -0.000305641 0.000340288 -0.0540631 0.000218611 0.000377219 -0.056826 0.000451331 0.000310555 -0.053636 0.000188358 0.000288417 -0.0586015 0.000584208 0.000719365 -0.0360932 0.000396498 0.000771892 -0.0405749 -0.000334326 0.000790114 -0.0356309 0.000564585 0.00052666 -0.0476618 0.000724881 0.000494896 -0.040116 0.000529725 0.000705092 -0.0433808 0.000496085 0.000732157 -0.04273 0.000262356 0.000180143 -0.0587525 0.000524754 0.000758418 -0.037769 -7.46834e-05 0.000835344 -0.0366837 -0.000358958 0.000782511 -0.0397135 0.000730375 0.000491171 -0.0396662 0.00037037 0.00046976 -0.0526983 0.000490847 0.00075114 -0.036493 0.000569065 0.000435037 -0.0313772 7.25393e-05 0.000348606 -0.058436 0.00052149 0.00035632 -0.0511776 -0.00025907 0.000629359 -0.0279969 -0.000224492 0.000513614 -0.0529488 0.00070807 0.00042285 -0.0427331 -0.000427829 0.000581325 -0.0299339 0.000236896 0.000765432 -0.0453616 0.000469961 0.000754123 -0.0354794 0.000516695 0.0007417 -0.035546 0.000587623 0.000547248 -0.0294718 -0.000141604 0.000148451 -0.0601958 -0.000158249 0.000756231 -0.0458699 -0.000465234 0.000614236 -0.0354016 0.00053175 0.00058339 -0.0280718 -0.000254599 0.000729786 -0.0270754 0.00063183 0.000596631 -0.0442086 -0.000347709 0.000782522 -0.0402084 0.000319238 0.000337417 -0.0560309 0.000666475 0.00061854 -0.0423339 -0.000219894 0.00082344 -0.0361234 3.93662e-05 0.000367412 -0.0581183 -0.000224447 0.000686582 -0.0250727 -4.59966e-05 0.000368429 -0.0578665 -0.000105045 0.000319083 -0.0584544 0.000624876 0.000604142 -0.0325436 0.000298075 0.000855064 -0.0386508 -2.15877e-05 0.000518588 -0.054595 -0.000114158 0.00077734 -0.0450557 -0.00017854 0.000198379 -0.059204 -6.9432e-05 0.000851137 -0.0386746 -0.000143478 0.000315455 -0.0578537 -7.54079e-05 0.000146878 -0.061199 0.00047533 0.000424545 -0.0515401 2.03422e-05 0.000835835 -0.0365487 0.000135827 0.00020249 -0.0603125 0.00044014 0.000696803 -0.0447541 8.49799e-05 0.000790626 -0.0457835 0.000229602 0.000289473 -0.0580038 -0.000174702 0.000543363 -0.0527194 -0.000412587 0.000392832 -0.0501478 0.000672924 0.0003016 -0.0455563 -0.000203678 0.00061136 -0.0505287 -0.000389343 0.000663571 -0.0433009 0.000145982 0.000842048 -0.0369667 7.68905e-05 0.000155283 -0.0613049 0.000584593 0.000374632 -0.0488769 -0.000374657 0.000206312 -0.054812 -0.000171081 0.000764767 -0.0452913 -0.000221658 0.000751337 -0.0464036 0.000551228 0.000656034 -0.0301669 0.000127596 0.000786696 -0.0456569 -0.000156195 0.000604723 -0.0511464 -0.000230041 0.000816455 -0.0405472 0.000206816 0.000181656 -0.0596796 -0.000193662 0.000268074 -0.0577907 -0.000204223 0.000395686 -0.055411 0.000680089 0.000421427 -0.0449915 -0.000462657 0.000619374 -0.0354177 -1.02976e-06 0.00071404 -0.0492347 0.000184906 0.000640888 -0.0506462 0.000597775 0.000677873 -0.042036 5.44002e-06 0.000373795 -0.0578881 0.000487359 0.000492466 -0.0252307 0.000626327 0.000682246 -0.0370318 0.000547318 0.000602419 -0.0260483 0.000547995 0.000603591 -0.0259365 -0.000379008 0.000184305 -0.054672 0.0001139 0.000814344 -0.0441758 0.000149223 0.000734883 -0.0481643 3.59138e-05 0.000136808 -0.061629 -0.000311981 0.000670936 -0.0303362 0.000516871 0.000601744 -0.0257955 -0.000102762 0.000519835 -0.0540299 0.000597879 0.000427008 -0.0326569 0.000239071 0.000234743 -0.0586109 0.000456635 0.000236871 -0.0539692 -1.5341e-05 0.000875268 -0.0408691 -0.000169427 0.000813026 -0.0421726 0.000558725 0.000630215 -0.029133 7.71685e-06 0.000347867 -0.0584592 0.000135729 0.000776599 -0.0461142 -0.000391699 0.000759043 -0.0358054 0.000681598 0.000292963 -0.0445236 0.000554307 0.000655217 -0.0451108 0.000110516 0.000524753 -0.0545336 0.000368666 0.00063811 -0.047832 -0.000160047 0.000465956 -0.0546922 -0.000368376 0.0007625 -0.0415553 0.00054347 0.000606583 -0.029606 -0.000157058 0.000277125 -0.0582366 0.000710403 0.000457956 -0.0362566 -0.000412978 0.000367355 -0.0507334 0.000651384 0.000478292 -0.033727 0.000603004 0.000596047 -0.0288632 0.000162863 0.000756374 -0.0299129 0.000681315 0.000291247 -0.044487 -0.000252819 0.00080611 -0.0333487 -0.000401476 0.000726304 -0.0379961 0.000521547 0.000717906 -0.0339447 0.000165511 0.000484227 -0.0549771 -0.000258946 0.000213002 -0.0576431 0.000165252 0.000512446 -0.0543824 0.00075695 0.000418153 -0.0386812 -0.000364573 0.000577545 -0.0271917 5.42076e-05 0.000159859 -0.0614694 -0.000356573 0.000641396 -0.0294906 6.65177e-05 0.000203242 -0.0609376 -0.000146698 0.000252078 -0.0588114 0.000476329 0.000482496 -0.0249359 -0.00016493 0.000401002 -0.0559255 0.000189659 0.00085868 -0.0411653 -8.70418e-07 0.000199766 -0.0610024 -0.00050761 0.0005322 -0.0435436 -6.87506e-05 0.000316239 -0.0588633 0.000500049 0.000757494 -0.0378985 0.00042031 0.000596291 -0.0488128 -0.000258557 0.000460009 -0.05307 0.00057309 0.000746914 -0.0392069 -8.49382e-05 0.000658254 -0.0501967 0.000407808 0.000741908 -0.0324746 -0.000229346 0.000359726 -0.055484 -0.000444032 0.000410532 -0.0488758 0.000179215 0.000677829 -0.0260429 -0.000531561 0.000527487 -0.0391366 -8.42514e-06 0.000339614 -0.0585969 0.000278324 0.000447381 -0.0545085 -0.000495713 0.000580884 -0.0401554 -4.81349e-06 0.000153427 -0.0613818 -0.00011855 0.000655258 -0.0500255 -0.000323041 0.000554333 -0.0490099 0.000665136 0.00060112 -0.0340747 -7.51916e-05 0.000432086 -0.0562762 -0.000319247 0.000725873 -0.0447572 -3.75606e-05 0.000451647 -0.0559983 -0.000208838 0.000708497 -0.0263195 -0.000350664 0.000610443 -0.0466147 -0.000307772 0.000727343 -0.0323053 -0.000145155 0.000836011 -0.0371081 0.000704928 0.00057161 -0.0351615 0.000419199 0.000767156 -0.040148 -0.000520948 0.000533219 -0.0428188 0.000752066 0.000509332 -0.0372539 9.21728e-05 0.000537141 -0.0544122 0.000373817 0.000804203 -0.0347888 -0.000291018 0.000804196 -0.0362536 0.000669098 0.000621675 -0.0355752 -0.000236813 0.000613723 -0.0260288 0.000530906 0.000517757 -0.048758 -0.000315947 0.000669095 -0.0463075 -0.000198568 0.000813543 -0.0334042 0.000158219 0.000172053 -0.0604351 -0.000219723 0.000214253 -0.0582718 0.000723927 0.000334885 -0.0418157 2.81414e-05 0.000775275 -0.0469099 0.000718314 0.000558302 -0.0349053 -0.00037141 0.000645851 -0.0447788 0.000688371 0.000589803 -0.0338516 -0.000113824 0.000267608 -0.0590901 0.000473603 0.000761117 -0.0414949 0.000314121 0.000568447 -0.0511645 0.000557866 0.000719194 -0.0352399 5.44569e-05 0.000434487 -0.0567678 -9.66745e-05 0.000621239 -0.0511749 -0.000263676 0.000301275 -0.0557877 -0.000392697 0.000308394 -0.0525426 -0.000282604 0.000371455 -0.0539072 0.000651529 0.000533382 -0.0323386 0.000303498 0.000851712 -0.0386056 0.00018156 0.000528055 -0.053929 0.000126268 0.000185174 -0.0606073 0.000107593 0.000155445 -0.0610357 0.000162083 0.000215591 -0.0598791 0.000739236 0.00054131 -0.0372526 -0.0002624 0.000813277 -0.0352853 0.000641433 0.000669858 -0.0372598 -0.000306688 0.000315475 -0.0546226 0.000548471 0.00066055 -0.0305017 -0.000301814 0.000523391 -0.0505099 0.00052266 0.000544173 -0.0484511 9.102e-05 0.000834812 -0.0432349 -0.000153332 0.000746962 -0.0285639 0.000118683 0.000147744 -0.0610018 -0.000171391 0.000432003 -0.0552226 0.000529292 0.000328401 -0.0512667 0.000115724 0.000855572 -0.0383094 -0.000426863 0.000498643 -0.0470327 0.000336655 0.000628663 -0.0261726 -6.22357e-05 0.000820641 -0.0347939 3.55435e-05 0.000714385 -0.0255047 0.000360574 0.000234532 -0.0564238 -0.000349868 0.000787627 -0.0382408 0.000446952 0.000767622 -0.0365931 0.000672191 0.000355306 -0.0462818 -0.000147989 0.000183564 -0.0598244 -0.000533181 0.000431436 -0.0452876 0.000570806 0.000586076 -0.0284572 -0.000360047 0.00064609 -0.0453234 -0.000191308 0.000810219 -0.0326866 0.000678732 0.000603122 -0.0349981 0.000198853 0.000671902 -0.0262645 0.000573104 0.000625447 -0.0460802 0.000681097 0.000459398 -0.035174 0.00042481 0.000530358 -0.0244583 0.000656567 0.000520179 -0.0443485 0.000181126 0.000240047 -0.059368 -0.000216087 0.000484005 -0.0536154 0.00067252 0.000392378 -0.0457293 0.000659671 0.000585501 -0.0317699 -0.000181552 0.000765272 -0.0296088 -0.000403656 0.000417513 -0.0497567 0.00040354 0.000226578 -0.0553653 0.000712836 0.000547848 -0.0381835 -0.000418248 0.000316554 -0.0516001 0.000654377 0.000660048 -0.0362845 6.34256e-05 0.000392124 -0.0576008 0.000547883 0.000572386 -0.0262049 0.000416074 0.000379396 -0.053487 
</DataArray>
<DataArray type="Float32" Name="Force" NumberOfComponents="3" >