<?xml version="1.0"?>
<VTKFile type="UnstructuredGrid" version="0.1" byte_order="LittleEndian">
<UnstructuredGrid>
<Piece NumberOfPoints="54" NumberOfCells="54">
<PointData Vectors="Particles">
<DataArray type="Float32" Name="Mass" NumberOfComponents="1" >
1.41117e-08 1.41117e-08 1.41117e-08 1.41117e-08 1.41117e-08 1.41117e-08 1.41117e-08 1.41117e-08 1.41117e-08 1.41117e-08 1.41117e-08 1.41117e-08 1.41117e-08 1.41117e-08 1.41117e-08 1.41117e-08 1.41117e-08 1.41117e-08 1.41117e-08 1.41117e-08 1.41117e-08 1.41117e-08 1.41117e-08 1.41117e-08 1.41117e-08 1.41117e-08 1.41117e-08 1.41117e-08 1.41117e-08 1.41117e-08 1.41117e-08 1.41117e-08 1.41117e-08 1.41117e-08 1.41117e-08 1.41117e-08 1.41117e-08 1.41117e-08 1.41117e-08 1.41117e-08 1.41117e-08 1.41117e-08 1.41117e-08 1.41117e-08 1.41117e-08 1.41117e-08 1.41117e-08 1.41117e-08 1.41117e-08 1.41117e-08 1.41117e-08 1.41117e-08 1.41117e-08 1.41117e-08 
</DataArray>
<DataArray type="Float32" Name="Radius" NumberOfComponents="1" >
0.00015 0.00015 0.00015 0.00015 0.00015 0.00015 0.00015 0.00015 0.00015 0.00015 0.00015 0.00015 0.00015 0.00015 0.00015 0.00015 0.00015 0.00015 0.00015 0.00015 0.00015 0.00015 0.00015 0.00015 0.00015 0.00015 0.00015 0.00015 0.00015 0.00015 0.00015 0.00015 0.00015 0.00015 0.00015 0.00015 0.00015 0.00015 0.00015 0.00015 0.00015 0.00015 0.00015 0.00015 0.00015 0.00015 0.00015 0.00015 0.00015 0.00015 0.00015 0.00015 0.00015 0.00015 
</DataArray>
<DataArray type="Float32" Name="Velocity" NumberOfComponents="3" >
0 0 0 0 0 0 0 0 0 0 0 0 0 0 0 0 0 0 0 0 0 0 0 0 0 0 0 0 0 0 0 0 0 0 0 0 0 0 0 0 0 0 0.00233733 0.000447214 -0.00348149 0 0 0 0 0 0 0 0 0 0 0 0 0 0 0 0 0 0 0 0 0 0.00594243 0.000571117 -0.00863485 0 0 0 0 0 0 0 0 0 0 0 0 0 0 0 0 0 0 0 0 0 0 0 0 0 0 0 0 0 0 0 0 0 0 0 0 0.00441226 0.000195714 -0.00786856 0 0 0 0 0 0 0 0 0 0 0 0 0 0 0 0 0 0 0 0 0 0 0 0 0 0 0 0 0 0 0 0 0 0 0 0 0 0 0 0 0 0 0 0 0 0 0 0 0 0 0 0 0 0 
</DataArray>
<DataArray type="Float32" Name="Force" NumberOfComponents="3" >
-2.0366e-11 2.6444e-11 2.00509e-09 -1.89224e-12 2.80638e-11 2.01211e-09 -9.07896e-12 2.77351e-11 2.00741e-09 5.37583e-11 2.76825e-11 1.82762e-09 1.33933e-11 3.22694e-11 1.94183e-09 2.69151e-12 4.50598e-11 1.19402e-09 -1.06288e-10 3.91975e-11 9.37141e-10 -1.19387e-11 3.30472e-11 1.9205e-09 9.74343e-11 4.13835e-11 1.81442e-09 6.04727e-11 3.85291e-11 1.8367e-09 -2.30577e-11 3.40791e-11 1.84578e-09 6.79091e-12 2.517e-11 1.75917e-10 8.61346e-12 3.08793e-11 1.83432e-09 9.37723e-11 4.43393e-11 1.78782e-09 -1.06899e-12 4.72522e-12 2.62285e-11 3.06353e-11 3.52162e-11 1.81007e-09 -2.35814e-11 3.42909e-11 1.79475e-09 1.43237e-11 5.73685e-11 1.08882e-09 -4.49353e-12 4.19834e-11 1.03444e-09 -2.55754e-11 7.01101e-11 9.03458e-10 -3.27899e-12 4.07356e-11 1.03938e-09 1.38491e-11 5.79211e-11 1.08413e-09 4.755e-12 -2.93965e-12 2.01446e-11 4.86014e-11 4.34105e-11 1.69269e-09 1.0996e-11 2.26101e-11 3.43265e-10 2.65818e-11 4.62576e-11 6.98779e-10 7.21764e-11 6.50094e-11 1.22106e-09 7.52674e-11 5.20443e-11 1.59144e-09 -7.40429e-12 5.33956e-11 1.42382e-09 5.89228e-11 4.78538e-11 1.57255e-09 1.0414e-11 3.95264e-11 1.276e-09 6.95006e-11 5.27102e-11 1.53508e-09 -5.89411e-11 4.27679e-11 1.38299e-09 4.82034e-11 4.74663e-11 1.52142e-09 2.29094e-11 5.81449e-11 1.1107e-09 4.1574e-11 2.72177e-11 6.13632e-11 1.43516e-11 6.38585e-11 1.37956e-09 9.88118e-12 2.60335e-11 3.23496e-10 7.36043e-11 5.80331e-11 1.43477e-09 3.37502e-11 4.00002e-11 1.35921e-09 2.35469e-12 3.84685e-11 2.25896e-10 2.7776e-11 4.05664e-11 7.75156e-10 -1.46902e-11 5.53571e-11 1.13887e-09 3.53779e-11 4.36584e-11 7.83858e-10 9.20012e-12 4.66078e-11 6.27276e-10 -3.20283e-12 3.15748e-11 1.47338e-09 2.36223e-11 5.61867e-11 1.12357e-09 7.13651e-12 3.09859e-11 1.46624e-09 2.03253e-12 2.86302e-11 8.38124e-10 6.39154e-12 2.88552e-11 1.85245e-10 7.81908e-12 5.98335e-11 1.0632e-09 5.48997e-11 4.6944e-11 1.33662e-09 4.60683e-12 4.22959e-11 5.44937e-10 1.03565e-11 4.68242e-11 6.28526e-10 
</DataArray>
<DataArray type="Float32" Name="Active" NumberOfComponents="1" >
0 0 0 0 0 0 0 0 0 0 0 0 0 0 1 0 0 0 0 0 0 0 1 0 0 0 0 0 0 0 0 0 0 0 0 1 0 0 0 0 0 0 0 0 0 0 0 0 0 0 0 0 0 0 
</DataArray>
</PointData>
<CellData /> 
<Cells>
<DataArray type="Int32" Name="connectivity" format="ascii">
0 1 2 3 4 5 6 7 8 9 10 11 12 13 14 15 16 17 18 19 20 21 22 23 24 25 26 27 28 29 30 31 32 33 34 35 36 37 38 39 40 41 42 43 44 45 46 47 48 49 50 51 52 53 </DataArray>
<DataArray type="Int32" Name="offsets" format="ascii">
1 2 3 4 5 6 7 8 9 10 11 12 13 14 15 16 17 18 19 20 21 22 23 24 25 26 27 28 29 30 31 32 33 34 35 36 37 38 39 40 41 42 43 44 45 46 47 48 49 50 51 52 53 54 </DataArray>
<DataArray type="UInt8" Name="types" format="ascii">
1 1 1 1 1 1 1 1 1 1 1 1 1 1 1 1 1 1 1 1 1 1 1 1 1 1 1 1 1 1 1 1 1 1 1 1 1 1 1 1 1 1 1 1 1 1 1 1 1 1 1 1 1 1 </DataArray>
</Cells>
<Points>
<DataArray type="Float32" Name="Position" NumberOfComponents="3" >
-0.000235132 0.00102002 0.00205319 0.000190099 0.00118712 0.00212423 6.24174e-05 0.00115348 0.00209924 0.00152556 0.00123907 0.00193522 0.000354979 0.0015571 0.00225811 -0.00021685 0.00390863 0.00420647 0.00241096 0.00405576 0.00246541 8.87759e-05 0.00166106 0.00229798 0.00119677 0.00176912 0.002301 0.000757229 0.00191481 0.00238333 -9.4058e-05 0.00197928 0.00232149 0.00165774 0.00610192 0.00716405 0.000299367 0.00214572 0.00238894 0.00113682 0.0019875 0.00238015 0.00370948 0.00609359 0.00377405 0.00054855 0.00217436 0.00240767 -0.000165608 0.00220386 0.00234662 0.000813063 0.00405323 0.00406854 -4.89153e-05 0.00455328 0.00624111 0.00143439 0.00442225 0.00421835 -3.44491e-05 0.0045412 0.00625728 0.000862958 0.00405989 0.00405957 0.00675248 0.00640892 0.00218997 0.000816061 0.00254903 0.00264447 0.000361838 0.00601049 0.00811114 0.000970314 0.00517869 0.00663132 0.00149888 0.00359543 0.00349409 0.00118672 0.00271205 0.00282362 0.00190536 0.00265422 0.00197902 0.000840275 0.00279971 0.0030117 0.000287281 0.00374708 0.00393257 0.00128341 0.00285469 0.00292089 0.00206671 0.00276871 0.00178973 0.000814306 0.00297853 0.00313907 0.00127114 0.00398586 0.00390951 0.00443585 0.00648055 0.00629282 0.00183217 0.00288347 0.00228804 0.000615239 0.00597426 0.00775876 0.00139918 0.00306653 0.00309159 0.000594116 0.00356791 0.00371215 0.0020603 0.00590552 0.00634234 0.000627411 0.00506243 0.00675709 -0.000232834 0.00416848 0.00557407 0.000765729 0.00500697 0.00659249 0.000753208 0.00541629 0.0070085 -0.000100878 0.00340963 0.00367512 0.00131417 0.00395645 0.00384898 0.000279325 0.00344691 0.00367882 2.61836e-05 0.00495487 0.00705571 0.00187667 0.00605074 0.00683735 0.00117663 0.00409174 0.00399725 0.0011932 0.00347755 0.00346691 0.00109704 0.00557235 0.00691791 0.000826001 0.00540392 0.00694482 
</DataArray>
</Points>
</Piece>
</UnstructuredGrid>
</VTKFile>
