<?xml version="1.0"?>
<VTKFile type="UnstructuredGrid" version="0.1" byte_order="LittleEndian">
<UnstructuredGrid>
<Piece NumberOfPoints="41" NumberOfCells="41">
<PointData Vectors="Particles">
<DataArray type="Float32" Name="Mass" NumberOfComponents="1" >
1.41117e-08 1.41117e-08 1.41117e-08 1.41117e-08 1.41117e-08 1.41117e-08 1.41117e-08 1.41117e-08 1.41117e-08 1.41117e-08 1.41117e-08 1.41117e-08 1.41117e-08 1.41117e-08 1.41117e-08 1.41117e-08 1.41117e-08 1.41117e-08 1.41117e-08 1.41117e-08 1.41117e-08 1.41117e-08 1.41117e-08 1.41117e-08 1.41117e-08 1.41117e-08 1.41117e-08 1.41117e-08 1.41117e-08 1.41117e-08 1.41117e-08 1.41117e-08 1.41117e-08 1.41117e-08 1.41117e-08 1.41117e-08 1.41117e-08 1.41117e-08 1.41117e-08 1.41117e-08 1.41117e-08 
</DataArray>
<DataArray type="Float32" Name="Radius" NumberOfComponents="1" >
0.00015 0.00015 0.00015 0.00015 0.00015 0.00015 0.00015 0.00015 0.00015 0.00015 0.00015 0.00015 0.00015 0.00015 0.00015 0.00015 0.00015 0.00015 0.00015 0.00015 0.00015 0.00015 0.00015 0.00015 0.00015 0.00015 0.00015 0.00015 0.00015 0.00015 0.00015 0.00015 0.00015 0.00015 0.00015 0.00015 0.00015 0.00015 0.00015 0.00015 0.00015 
</DataArray>
<DataArray type="Float32" Name="Velocity" NumberOfComponents="3" >
-2.66182e-05 -7.71866e-06 -0.0590137 7.45174e-05 -1.03097e-05 -0.0590126 -3.85009e-05 -9.21539e-07 -0.0589705 -4.1155e-06 1.98139e-05 -0.0589212 -4.97195e-05 2.07069e-05 -0.0588635 -2.3694e-05 3.83092e-05 -0.0588173 0.000123255 -1.79641e-05 -0.0588317 0.000150815 -3.43509e-05 -0.0585 0.00020213 5.02649e-05 -0.0581995 0.000277396 -3.2368e-05 -0.0579193 0.000271408 3.83741e-05 -0.0579088 0.000293517 -1.76179e-06 -0.057859 2.78392e-05 0.000103543 -0.0576165 0.000257915 6.49379e-05 -0.0576511 0.000298809 -4.17532e-05 -0.0574465 0.000319043 -1.15703e-05 -0.0575605 0.000319639 4.69049e-06 -0.0574446 0.000201728 8.55972e-05 -0.0573187 8.2157e-05 0.000110498 -0.057191 0.000254295 7.8038e-05 -0.0572387 0.000231087 8.30573e-05 -0.0572199 4.72357e-05 0.000118542 -0.0571122 0.000339881 -2.9924e-05 -0.0570409 0.000336213 2.50688e-05 -0.057045 0.000314191 5.48477e-05 -0.0570946 0.000334229 4.47889e-05 -0.0569339 0.000115904 0.000114214 -0.0568266 0.000341015 -4.19302e-05 -0.0567588 0.000155577 0.000111297 -0.0566669 -5.18363e-05 0.000120608 -0.056594 0.000109262 0.000118481 -0.0563686 0.000220542 0.000105999 -0.0563996 0.000392597 -2.26162e-05 -0.0562475 0.000380735 4.17358e-05 -0.0560741 0.000115244 0.00012012 -0.0558706 0.00039615 1.57586e-05 -0.0559794 9.77897e-05 0.000122007 -0.0557908 0.000395758 -3.6023e-05 -0.0558083 0.000407612 -1.29353e-06 -0.0557646 0.0003652 5.75707e-05 -0.0557606 0.000394956 3.95429e-05 -0.0557743 
</DataArray>
<DataArray type="Float32" Name="Force" NumberOfComponents="3" >
-2.17061e-12 -1.08378e-12 1.10987e-10 6.15481e-12 -1.37449e-12 1.11481e-10 -3.13983e-12 -2.98939e-13 1.10588e-10 -3.18201e-13 2.08305e-12 1.10749e-10 -4.06004e-12 2.17961e-12 1.09759e-10 -1.92325e-12 4.22001e-12 1.09778e-10 1.02748e-11 -2.1499e-12 1.08954e-10 1.27295e-11 -3.86527e-12 1.06136e-10 1.69736e-11 5.94495e-12 1.01021e-10 2.31954e-11 -3.3794e-12 9.9413e-11 2.27268e-11 4.6734e-12 9.83057e-11 2.45419e-11 9.7772e-14 9.64187e-11 2.18681e-12 1.19516e-11 1.04036e-10 2.16469e-11 7.75722e-12 9.56105e-11 2.51597e-11 -4.50603e-12 9.35909e-11 2.67923e-11 -9.72586e-13 9.14954e-11 2.68774e-11 8.60203e-13 9.0227e-11 1.70108e-11 1.01298e-11 9.52016e-11 6.89891e-12 1.30066e-11 1.00282e-10 2.14183e-11 9.35717e-12 9.34942e-11 1.94988e-11 9.92142e-12 9.32961e-11 3.91922e-12 1.39991e-11 1.01514e-10 2.88518e-11 -3.12377e-12 8.60735e-11 2.8402e-11 3.20994e-12 8.52814e-11 2.64458e-11 6.65548e-12 8.7575e-11 2.81948e-11 5.50977e-12 8.44103e-11 9.88808e-12 1.37948e-11 9.64192e-11 2.91099e-11 -4.64121e-12 8.4115e-11 1.33528e-11 1.35946e-11 9.34079e-11 -4.5469e-12 1.4602e-11 9.74329e-11 9.36326e-12 1.46973e-11 9.43243e-11 1.9053e-11 1.32051e-11 8.83227e-11 3.36871e-11 -2.22712e-12 7.43372e-11 3.24674e-11 5.37452e-12 7.25917e-11 9.89648e-12 1.52699e-11 9.0806e-11 3.39261e-11 2.29635e-12 7.0754e-11 8.33641e-12 1.55181e-11 9.12205e-11 3.39887e-11 -3.92243e-12 7.1839e-11 3.48113e-11 2.85347e-13 7.09357e-11 3.12317e-11 7.20188e-12 7.1771e-11 3.37606e-11 5.10341e-12 6.98332e-11 
</DataArray>
<DataArray type="Float32" Name="Active" NumberOfComponents="1" >
1 1 1 1 1 1 1 1 1 1 1 1 1 1 1 1 1 1 1 1 1 1 1 1 1 1 1 1 1 1 1 1 1 1 1 1 1 1 1 1 1 
</DataArray>
</PointData>
<CellData /> 
<Cells>
<DataArray type="Int32" Name="connectivity" format="ascii">
0 1 2 3 4 5 6 7 8 9 10 11 12 13 14 15 16 17 18 19 20 21 22 23 24 25 26 27 28 29 30 31 32 33 34 35 36 37 38 39 40 </DataArray>
<DataArray type="Int32" Name="offsets" format="ascii">
1 2 3 4 5 6 7 8 9 10 11 12 13 14 15 16 17 18 19 20 21 22 23 24 25 26 27 28 29 30 31 32 33 34 35 36 37 38 39 40 41 </DataArray>
<DataArray type="UInt8" Name="types" format="ascii">
1 1 1 1 1 1 1 1 1 1 1 1 1 1 1 1 1 1 1 1 1 1 1 1 1 1 1 1 1 1 1 1 1 1 1 1 1 1 1 1 1 </DataArray>
</Cells>
<Points>
<DataArray type="Float32" Name="Position" NumberOfComponents="3" >
-6.57559e-05 0.000156049 0.0253012 0.000386427 0.00018576 0.0252956 -0.000119327 6.77007e-05 0.025337 3.46878e-05 -0.000204794 0.0253774 -0.000171145 -0.000217995 0.0254318 -5.40417e-05 -0.00045322 0.025473 0.000611914 0.000282931 0.0254494 0.000751699 0.000509971 0.0257271 0.00101325 -0.000672167 0.0260445 0.00139908 0.000480159 0.0262287 0.00137242 -0.000529358 0.0262856 0.00149391 4.12799e-05 0.0263178 0.000181204 -0.00151543 0.0264901 0.00132486 -0.000939198 0.0265228 0.00156372 0.000632585 0.0266472 0.00166496 0.000178016 0.0265842 0.00168268 -6.34447e-05 0.0266966 0.00106142 -0.00129036 0.0267965 0.000454448 -0.00169944 0.0268673 0.00133941 -0.00118715 0.0268791 0.00121989 -0.00126659 0.0268917 0.00027746 -0.00184144 0.026913 0.00184558 0.000459841 0.0270274 0.00182579 -0.000389145 0.0270572 0.00169201 -0.000843177 0.0270098 0.0018287 -0.000702918 0.027161 0.000638478 -0.00182949 0.0271907 0.00189018 0.000660499 0.0272612 0.000854998 -0.00181189 0.0273385 -0.000219828 -0.00198378 0.0273435 0.000619989 -0.00200247 0.0275514 0.00122494 -0.00177808 0.0275979 0.00228643 0.000344421 0.0277552 0.00224266 -0.000732865 0.0279456 0.000673333 -0.00216201 0.0279836 0.00235828 -0.000302594 0.0280211 0.000578696 -0.00221896 0.028041 0.00238485 0.000588577 0.0281222 0.00247496 -2.33914e-05 0.0281736 0.00219464 -0.00103023 0.0281969 0.0023875 -0.000722981 0.0282115 
</DataArray>
</Points>
</Piece>
</UnstructuredGrid>
</VTKFile>
