<?xml version="1.0"?>
<VTKFile type="UnstructuredGrid" version="0.1" byte_order="LittleEndian">
<UnstructuredGrid>
<Piece NumberOfPoints="57" NumberOfCells="57">
<PointData Vectors="Particles">
<DataArray type="Float32" Name="Mass" NumberOfComponents="1" >
1.41117e-08 1.41117e-08 1.41117e-08 1.41117e-08 1.41117e-08 1.41117e-08 1.41117e-08 1.41117e-08 1.41117e-08 1.41117e-08 1.41117e-08 1.41117e-08 1.41117e-08 1.41117e-08 1.41117e-08 1.41117e-08 1.41117e-08 1.41117e-08 1.41117e-08 1.41117e-08 1.41117e-08 1.41117e-08 1.41117e-08 1.41117e-08 1.41117e-08 1.41117e-08 1.41117e-08 1.41117e-08 1.41117e-08 1.41117e-08 1.41117e-08 1.41117e-08 1.41117e-08 1.41117e-08 1.41117e-08 1.41117e-08 1.41117e-08 1.41117e-08 1.41117e-08 1.41117e-08 1.41117e-08 1.41117e-08 1.41117e-08 1.41117e-08 1.41117e-08 1.41117e-08 1.41117e-08 1.41117e-08 1.41117e-08 1.41117e-08 1.41117e-08 1.41117e-08 1.41117e-08 1.41117e-08 1.41117e-08 1.41117e-08 1.41117e-08 
</DataArray>
<DataArray type="Float32" Name="Radius" NumberOfComponents="1" >
0.00015 0.00015 0.00015 0.00015 0.00015 0.00015 0.00015 0.00015 0.00015 0.00015 0.00015 0.00015 0.00015 0.00015 0.00015 0.00015 0.00015 0.00015 0.00015 0.00015 0.00015 0.00015 0.00015 0.00015 0.00015 0.00015 0.00015 0.00015 0.00015 0.00015 0.00015 0.00015 0.00015 0.00015 0.00015 0.00015 0.00015 0.00015 0.00015 0.00015 0.00015 0.00015 0.00015 0.00015 0.00015 0.00015 0.00015 0.00015 0.00015 0.00015 0.00015 0.00015 0.00015 0.00015 0.00015 0.00015 0.00015 
</DataArray>
<DataArray type="Float32" Name="Velocity" NumberOfComponents="3" >
0 0 0 0 0 0 0 0 0 0 0 0 0 0 0 0 0 0 0 0 0 0 0 0 0 0 0 0 0 0 -0.00421454 2.96706e-05 -0.00885786 0 0 0 0 0 0 -0.00647678 0.00053969 -0.00973595 0 0 0 0 0 0 0 0 0 0 0 0 0 0 0 0 0 0 -0.00617118 0.00057078 -0.00917437 0 0 0 0 0 0 0 0 0 0 0 0 0 0 0 0 0 0 0 0 0 0 0 0 0 0 0 -0.00390371 0.000562589 -0.00602878 -0.00593807 0.000581438 -0.00879822 0 0 0 0 0 0 -0.00617249 0.000124758 -0.0112607 0 0 0 0 0 0 -0.00793256 -7.97577e-05 -0.0139677 -0.0111121 -0.000604966 -0.0194705 0 0 0 0 0 0 -0.00328017 0.000535474 -0.00515651 0 0 0 -0.00539577 0.00039957 -0.00905573 0 0 0 -0.0116069 -0.00060988 -0.0201625 -0.00645112 0.00053843 -0.00970932 -0.00287211 0.000486213 -0.00458402 -0.0106112 -0.000364349 -0.0180384 0 0 0 0 0 0 -0.00421291 0.000591118 -0.00620469 0 0 0 -0.00316547 0.000156959 -0.00629754 0 0 0 0 0 0 0 0 0 
</DataArray>
<DataArray type="Float32" Name="Force" NumberOfComponents="3" >
-1.23225e-11 2.85118e-11 3.80299e-10 -9.4926e-11 3.61345e-11 1.88298e-09 -1.05565e-10 3.76008e-11 1.87786e-09 -1.53834e-10 3.89781e-11 1.72617e-09 -3.18933e-11 2.90944e-11 1.75495e-09 -9.92994e-12 8.59502e-11 9.04275e-10 -1.05096e-10 4.07309e-11 1.83757e-09 1.52295e-11 5.14061e-11 4.07579e-10 -6.96912e-11 3.71941e-11 1.88565e-09 -6.71778e-11 3.73255e-11 1.87948e-09 -5.69954e-11 3.8534e-11 8.93873e-11 -8.70056e-12 6.74327e-11 9.88963e-10 7.43889e-11 4.48253e-11 8.06921e-10 -1.01825e-11 2.3628e-13 3.47661e-11 -1.32303e-10 5.32038e-11 1.60107e-09 -2.63371e-12 5.06213e-11 6.13961e-10 9.38717e-11 3.02839e-11 1.6367e-09 8.53131e-11 5.01194e-11 9.88497e-10 1.15725e-11 5.95895e-11 5.7908e-10 2.54757e-11 5.1102e-11 4.95103e-10 1.91516e-14 -2.49811e-12 3.61863e-11 6.7918e-11 4.52897e-11 7.18737e-10 2.50086e-11 6.23927e-11 1.21577e-09 -8.89537e-11 5.48387e-11 1.53487e-09 9.19929e-11 -4.22325e-12 2.78795e-10 -5.55757e-12 3.64655e-11 7.07192e-10 -2.0464e-11 6.33066e-11 1.07888e-09 -3.87957e-11 7.80695e-11 1.07037e-09 -7.68337e-13 5.90274e-11 5.26132e-10 -2.25655e-11 5.17617e-11 1.47778e-09 8.50008e-12 3.25654e-13 5.14508e-11 5.55018e-12 -3.6836e-12 3.95563e-11 -1.92176e-11 4.69708e-11 1.52461e-09 3.34746e-11 4.64472e-11 1.40169e-09 -7.70303e-11 2.26926e-11 5.43497e-11 -2.37589e-11 5.13276e-11 1.48551e-09 8.00263e-11 2.17843e-11 4.16622e-10 -1.00117e-10 1.92703e-11 4.84279e-12 -1.50117e-10 1.05336e-11 -8.95163e-11 -1.17258e-11 4.06288e-11 7.79725e-10 -1.22062e-11 4.51706e-11 7.81612e-10 9.16052e-12 1.78083e-12 5.10577e-11 6.40935e-12 6.19057e-11 5.6154e-10 -3.6952e-11 1.36397e-11 5.48009e-11 -2.91989e-11 3.80561e-11 1.46679e-09 -1.4579e-10 1.23783e-11 -9.25152e-11 -1.00431e-11 4.63219e-13 3.62655e-11 2.14387e-11 5.95518e-12 6.14136e-11 -1.29017e-10 1.30586e-11 -6.78032e-11 -9.55662e-12 3.10648e-11 6.01412e-10 -7.14787e-12 1.70977e-11 2.76146e-10 1.49129e-11 -5.81947e-12 4.77943e-11 -6.87929e-11 7.78114e-11 1.25423e-09 -1.95219e-11 2.53036e-11 8.46035e-11 -4.08965e-11 3.6266e-11 1.83297e-09 9.96446e-11 1.11538e-11 4.94546e-10 4.3663e-11 1.30323e-11 2.10154e-10 
</DataArray>
<DataArray type="Float32" Name="Active" NumberOfComponents="1" >
0 0 0 0 0 0 0 0 0 0 1 0 0 1 0 0 0 0 0 0 1 0 0 0 0 0 0 0 0 0 1 1 0 0 1 0 0 1 1 0 0 1 0 1 0 1 1 1 1 0 0 1 0 1 0 0 0 
</DataArray>
</PointData>
<CellData /> 
<Cells>
<DataArray type="Int32" Name="connectivity" format="ascii">
0 1 2 3 4 5 6 7 8 9 10 11 12 13 14 15 16 17 18 19 20 21 22 23 24 25 26 27 28 29 30 31 32 33 34 35 36 37 38 39 40 41 42 43 44 45 46 47 48 49 50 51 52 53 54 55 56 </DataArray>
<DataArray type="Int32" Name="offsets" format="ascii">
1 2 3 4 5 6 7 8 9 10 11 12 13 14 15 16 17 18 19 20 21 22 23 24 25 26 27 28 29 30 31 32 33 34 35 36 37 38 39 40 41 42 43 44 45 46 47 48 49 50 51 52 53 54 55 56 57 </DataArray>
<DataArray type="UInt8" Name="types" format="ascii">
1 1 1 1 1 1 1 1 1 1 1 1 1 1 1 1 1 1 1 1 1 1 1 1 1 1 1 1 1 1 1 1 1 1 1 1 1 1 1 1 1 1 1 1 1 1 1 1 1 1 1 1 1 1 1 1 1 </DataArray>
</Cells>
<Points>
<DataArray type="Float32" Name="Position" NumberOfComponents="3" >
-0.00108141 0.00608745 0.00896659 -0.000965768 0.00118619 0.00211206 -0.000960247 0.0012074 0.00214573 -0.00138521 0.00113145 0.00204405 -0.0015496 0.00113015 0.00168015 -0.00152883 0.00451013 0.00484283 -0.000950364 0.00144738 0.00219262 -0.00176847 0.00559347 0.0060917 -0.0006782 0.00157707 0.00222332 -0.000625594 0.00162535 0.00224035 -0.00397698 0.00640199 0.00689643 -0.0010565 0.00446506 0.00522918 -0.00227418 0.0043989 0.00320505 -0.00684841 0.00628324 0.00184181 -0.00145418 0.00199881 0.0022023 -0.000918887 0.00557141 0.00768387 -0.0019562 0.00194102 0.00128386 -0.00188508 0.00428582 0.00376625 -0.00110153 0.00549407 0.0070814 -0.00213837 0.00515677 0.00467 -0.00689147 0.00627459 0.00135682 -0.00214498 0.00472526 0.0039268 -0.00182586 0.00354037 0.00293326 -0.00143703 0.00244445 0.00226864 -0.00405377 0.00530425 0.00150712 -0.000471526 0.00540813 0.00784777 -0.000953821 0.00421669 0.00505321 -0.00144932 0.00403698 0.00426341 -0.00137346 0.00529913 0.0059534 -0.00128637 0.00279371 0.00234293 -0.00485889 0.00619939 0.00309213 -0.00683342 0.00626956 0.00121583 -0.000752842 0.00297723 0.00285782 -0.00185392 0.00290466 0.00210445 -0.00566 0.0063712 0.00572618 -0.000895372 0.00302033 0.00288155 -0.00297195 0.00503824 0.00274166 -0.00732239 0.00615532 0.00452728 -0.0102134 0.00531497 0.0019526 -0.000429217 0.00510205 0.0071881 -0.000509589 0.00508903 0.00700086 -0.00433699 0.00614922 0.00346076 -0.00175469 0.00518597 0.0054245 -0.00514472 0.00632977 0.00472444 -0.000622193 0.00330512 0.00359215 -0.0106612 0.00520576 0.00122294 -0.00680417 0.00628413 0.00191065 -0.00397235 0.00610321 0.00369102 -0.0096295 0.00559762 0.00208468 -0.00064877 0.00565635 0.00820812 -0.00112459 0.0064123 0.00961074 -0.0058868 0.00620434 0.00130819 -0.00147736 0.0034419 0.00342833 -0.00338587 0.00625842 0.00613461 -0.000372259 0.00195583 0.0022916 -0.00338272 0.00480362 0.00173941 -0.00284853 0.00567966 0.0044168 
</DataArray>
</Points>
</Piece>
</UnstructuredGrid>
</VTKFile>
