<?xml version="1.0"?>
<VTKFile type="UnstructuredGrid" version="0.1" byte_order="LittleEndian">
<UnstructuredGrid>
<Piece NumberOfPoints="43" NumberOfCells="43">
<PointData Vectors="Particles">
<DataArray type="Float32" Name="Mass" NumberOfComponents="1" >
1.41117e-08 1.41117e-08 1.41117e-08 1.41117e-08 1.41117e-08 1.41117e-08 1.41117e-08 1.41117e-08 1.41117e-08 1.41117e-08 1.41117e-08 1.41117e-08 1.41117e-08 1.41117e-08 1.41117e-08 1.41117e-08 1.41117e-08 1.41117e-08 1.41117e-08 1.41117e-08 1.41117e-08 1.41117e-08 1.41117e-08 1.41117e-08 1.41117e-08 1.41117e-08 1.41117e-08 1.41117e-08 1.41117e-08 1.41117e-08 1.41117e-08 1.41117e-08 1.41117e-08 1.41117e-08 1.41117e-08 1.41117e-08 1.41117e-08 1.41117e-08 1.41117e-08 1.41117e-08 1.41117e-08 1.41117e-08 1.41117e-08 
</DataArray>
<DataArray type="Float32" Name="Radius" NumberOfComponents="1" >
0.00015 0.00015 0.00015 0.00015 0.00015 0.00015 0.00015 0.00015 0.00015 0.00015 0.00015 0.00015 0.00015 0.00015 0.00015 0.00015 0.00015 0.00015 0.00015 0.00015 0.00015 0.00015 0.00015 0.00015 0.00015 0.00015 0.00015 0.00015 0.00015 0.00015 0.00015 0.00015 0.00015 0.00015 0.00015 0.00015 0.00015 0.00015 0.00015 0.00015 0.00015 0.00015 0.00015 
</DataArray>
<DataArray type="Float32" Name="Velocity" NumberOfComponents="3" >
-0.0134031 -0.000103543 -0.0274 -0.0159578 -0.00037652 -0.0313463 -0.016005 -0.000386756 -0.0313966 -0.0135461 -0.000207363 -0.0272854 -0.0131019 -0.000277473 -0.0259672 -0.0144015 -0.000460298 -0.0281084 -0.0130581 -0.000321415 -0.0256224 -0.0132982 -0.000366526 -0.0260197 -0.0178201 -0.000391303 -0.0338995 -0.0162821 -0.00048654 -0.0311282 -0.0124761 -0.000242649 -0.0245481 -0.0189388 -0.000270329 -0.0357552 -0.0116094 -0.000141325 -0.0228226 -0.0158157 -0.000514107 -0.0301738 -0.0178879 -0.00035575 -0.0337474 -0.0192091 -0.000272791 -0.0359592 -0.019622 -0.000243151 -0.0366735 -0.0167114 -0.000432982 -0.0316586 -0.0199598 -0.000231711 -0.0371247 -0.0136219 -0.000437762 -0.0260443 -0.016505 -0.000400028 -0.0312009 -0.0155485 -0.000438112 -0.0295753 -0.0204618 -0.000215698 -0.0379 0 0 0 -0.0171813 -0.000351367 -0.0322657 -0.0193355 -0.000247395 -0.0358163 -0.019811 -0.000237869 -0.0365567 -0.0115131 -0.000299637 -0.0219359 -0.0169293 -0.000349174 -0.0316522 -0.0212302 -0.000253066 -0.0387911 -0.0193078 -0.000304575 -0.0352366 -0.0169959 -0.000382772 -0.0312999 0 0 0 -0.0118677 -0.000207247 -0.0211796 -0.0209512 -0.000153648 -0.0372741 -0.0217362 -0.000138767 -0.0391787 -0.0213341 -0.000144811 -0.0382822 -0.0134054 2.11937e-05 -0.0234153 -0.0176438 5.89056e-05 -0.0305518 -0.0189485 -1.94335e-05 -0.0330823 -0.020848 -0.000142942 -0.037346 -0.00830005 -0.000269598 -0.0148964 -0.00564683 -0.000358507 -0.0106766 
</DataArray>
<DataArray type="Float32" Name="Force" NumberOfComponents="3" >
-9.20408e-11 5.72651e-11 1.3075e-10 -6.52232e-11 7.69882e-11 1.91028e-10 -6.80665e-11 7.80658e-11 1.94115e-10 -9.95462e-11 6.921e-11 1.34974e-10 -1.11238e-10 7.5468e-11 1.04924e-10 -1.00596e-10 8.91878e-11 1.45662e-10 -1.20096e-10 7.71738e-11 1.00631e-10 -1.15295e-10 8.06785e-11 1.06463e-10 -2.65072e-11 5.54901e-11 1.98621e-10 -9.443e-11 6.82089e-11 2.11113e-10 -1.32255e-10 7.09379e-11 8.18139e-11 2.87486e-11 4.14723e-11 1.63542e-10 -1.34838e-10 5.37659e-11 8.64113e-11 -6.11624e-11 6.30607e-11 1.81739e-10 2.77053e-11 5.15904e-11 1.64284e-10 4.83153e-11 4.6098e-11 1.4903e-10 4.44966e-11 4.51738e-11 1.42093e-10 1.11539e-11 5.74281e-11 1.61684e-10 5.08645e-11 4.69409e-11 1.35408e-10 -1.27556e-10 7.67796e-11 1.45558e-10 1.79778e-11 5.75896e-11 1.54259e-10 -3.51266e-12 5.5171e-11 1.51697e-10 4.62644e-11 4.99869e-11 1.34039e-10 -2.53368e-10 -2.49776e-11 -6.86464e-11 3.71342e-11 5.86847e-11 1.518e-10 5.22787e-11 5.76558e-11 1.44291e-10 5.49321e-11 5.87366e-11 1.44607e-10 -1.7361e-10 8.62423e-11 4.93225e-11 5.94242e-11 5.24479e-11 1.42897e-10 1.18901e-10 -2.24741e-11 3.93096e-11 1.44177e-10 -1.31999e-11 6.94915e-11 1.74584e-10 -2.86242e-11 3.69024e-11 -2.1983e-10 -2.04525e-11 -3.15044e-11 8.48787e-11 -4.12012e-11 5.97787e-11 -3.67587e-11 -1.52731e-11 -1.51716e-11 -7.66101e-11 -9.93475e-12 -4.20307e-11 -7.63365e-11 -8.0713e-12 -4.03291e-11 6.76138e-11 -3.03409e-11 8.63155e-11 8.70949e-12 -1.43704e-11 3.54225e-11 -2.30284e-11 -9.09034e-12 4.42413e-12 -8.72154e-11 -2.82257e-12 -4.43878e-11 6.72872e-11 -2.84924e-11 8.8528e-11 4.08984e-11 1.04611e-11 5.58136e-11 
</DataArray>
<DataArray type="Float32" Name="Active" NumberOfComponents="1" >
0 0 0 0 0 0 0 0 0 0 0 0 0 0 0 0 0 0 0 0 0 0 0 0 0 0 0 0 1 1 1 1 0 1 1 1 1 1 1 1 1 1 1 
</DataArray>
</PointData>
<CellData /> 
<Cells>
<DataArray type="Int32" Name="connectivity" format="ascii">
0 1 2 3 4 5 6 7 8 9 10 11 12 13 14 15 16 17 18 19 20 21 22 23 24 25 26 27 28 29 30 31 32 33 34 35 36 37 38 39 40 41 42 </DataArray>
<DataArray type="Int32" Name="offsets" format="ascii">
1 2 3 4 5 6 7 8 9 10 11 12 13 14 15 16 17 18 19 20 21 22 23 24 25 26 27 28 29 30 31 32 33 34 35 36 37 38 39 40 41 42 43 </DataArray>
<DataArray type="UInt8" Name="types" format="ascii">
1 1 1 1 1 1 1 1 1 1 1 1 1 1 1 1 1 1 1 1 1 1 1 1 1 1 1 1 1 1 1 1 1 1 1 1 1 1 1 1 1 1 1 </DataArray>
</Cells>
<Points>
<DataArray type="Float32" Name="Position" NumberOfComponents="3" >
-0.0186652 0.000841915 -0.0241403 -0.0193717 0.00100692 -0.023723 -0.0193859 0.00102708 -0.0237092 -0.0187499 0.00115347 -0.024104 -0.0187637 0.00160205 -0.0240368 -0.0191482 0.00169664 -0.0238208 -0.0188476 0.0018148 -0.0240121 -0.0189245 0.00185676 -0.0239598 -0.0200784 0.0013722 -0.023322 -0.019769 0.00177488 -0.0234813 -0.0186945 0.00181407 -0.024075 -0.0203699 0.00094458 -0.0231495 -0.0185128 0.00187581 -0.0241626 -0.0198228 0.00216544 -0.0233828 -0.0203658 0.00181736 -0.0231051 -0.0206278 0.00138399 -0.0229613 -0.0207201 0.00112217 -0.0229529 -0.0202208 0.00228986 -0.0231688 -0.0208788 0.00114905 -0.022835 -0.0195591 0.00276545 -0.0235522 -0.0203265 0.00250501 -0.0231212 -0.0201154 0.00267376 -0.0231908 -0.0210757 0.000914372 -0.0227396 -0.0175794 0.00103128 -0.0247769 -0.0205123 0.00243888 -0.0230115 -0.0209217 0.00172361 -0.0227963 -0.0210578 0.00159077 -0.0227043 -0.0190496 0.00293096 -0.0238337 -0.0206024 0.00269287 -0.0228437 -0.0209845 0.000967567 -0.021576 -0.0206165 0.00223246 -0.0216198 -0.0200915 0.00290835 -0.0216662 -0.0174397 0.00117856 -0.0248424 -0.0175127 0.00379962 -0.0196291 -0.0188945 0.00195408 -0.0169868 -0.0188476 0.00108555 -0.0165211 -0.0184678 0.00156078 -0.0157772 -0.0170827 0.00403375 -0.0175676 -0.0172158 0.00358903 -0.0150596 -0.0174386 0.00314706 -0.0146943 -0.0178554 0.00194181 -0.0145365 -0.0163295 0.00355111 -0.0198039 -0.0162037 0.00223214 -0.0220411 
</DataArray>
</Points>
</Piece>
</UnstructuredGrid>
</VTKFile>
