<?xml version="1.0"?>
<VTKFile type="UnstructuredGrid" version="0.1" byte_order="LittleEndian">
<UnstructuredGrid>
<Piece NumberOfPoints="71" NumberOfCells="71">
<PointData Vectors="Particles">
<DataArray type="Float32" Name="Mass" NumberOfComponents="1" >
1.41117e-08 1.41117e-08 1.41117e-08 1.41117e-08 1.41117e-08 1.41117e-08 1.41117e-08 1.41117e-08 1.41117e-08 1.41117e-08 1.41117e-08 1.41117e-08 1.41117e-08 1.41117e-08 1.41117e-08 1.41117e-08 1.41117e-08 1.41117e-08 1.41117e-08 1.41117e-08 1.41117e-08 1.41117e-08 1.41117e-08 1.41117e-08 1.41117e-08 1.41117e-08 1.41117e-08 1.41117e-08 1.41117e-08 1.41117e-08 1.41117e-08 1.41117e-08 1.41117e-08 1.41117e-08 1.41117e-08 1.41117e-08 1.41117e-08 1.41117e-08 1.41117e-08 1.41117e-08 1.41117e-08 1.41117e-08 1.41117e-08 1.41117e-08 1.41117e-08 1.41117e-08 1.41117e-08 1.41117e-08 1.41117e-08 1.41117e-08 1.41117e-08 1.41117e-08 1.41117e-08 1.41117e-08 1.41117e-08 1.41117e-08 1.41117e-08 1.41117e-08 1.41117e-08 1.41117e-08 1.41117e-08 1.41117e-08 1.41117e-08 1.41117e-08 1.41117e-08 1.41117e-08 1.41117e-08 1.41117e-08 1.41117e-08 1.41117e-08 1.41117e-08 
</DataArray>
<DataArray type="Float32" Name="Radius" NumberOfComponents="1" >
0.00015 0.00015 0.00015 0.00015 0.00015 0.00015 0.00015 0.00015 0.00015 0.00015 0.00015 0.00015 0.00015 0.00015 0.00015 0.00015 0.00015 0.00015 0.00015 0.00015 0.00015 0.00015 0.00015 0.00015 0.00015 0.00015 0.00015 0.00015 0.00015 0.00015 0.00015 0.00015 0.00015 0.00015 0.00015 0.00015 0.00015 0.00015 0.00015 0.00015 0.00015 0.00015 0.00015 0.00015 0.00015 0.00015 0.00015 0.00015 0.00015 0.00015 0.00015 0.00015 0.00015 0.00015 0.00015 0.00015 0.00015 0.00015 0.00015 0.00015 0.00015 0.00015 0.00015 0.00015 0.00015 0.00015 0.00015 0.00015 0.00015 0.00015 0.00015 
</DataArray>
<DataArray type="Float32" Name="Velocity" NumberOfComponents="3" >
-3.08096e-06 1.58916e-05 -0.0599714 3.82665e-06 1.16981e-05 -0.0598744 2.83249e-05 1.69368e-05 -0.0599735 -6.76485e-06 1.47643e-05 -0.0599245 -1.0204e-05 1.12906e-05 -0.0598091 -2.21554e-06 8.50236e-06 -0.0597613 4.38214e-05 1.83906e-05 -0.0597742 5.2698e-05 2.17021e-05 -0.0594207 6.74501e-05 6.44226e-06 -0.059062 9.39652e-05 2.23492e-05 -0.0587855 9.0144e-05 8.79051e-06 -0.0587504 9.88383e-05 1.66768e-05 -0.0586922 1.49271e-05 -7.50427e-06 -0.0585027 0.000101742 2.54734e-05 -0.0582658 8.49651e-05 2.58335e-06 -0.0584641 0.000107876 1.8934e-05 -0.0583537 0.000107723 1.56073e-05 -0.0582253 6.68929e-05 -3.85311e-06 -0.0581324 3.11167e-05 -1.14358e-05 -0.0580436 2.13261e-05 -1.40388e-05 -0.057977 8.35486e-05 -1.98407e-06 -0.0580328 7.6079e-05 -3.47594e-06 -0.0580166 0.000116388 2.40201e-05 -0.0577951 0.000113221 1.09304e-05 -0.0577799 0.000104581 3.85294e-06 -0.0578481 0.000112034 5.98562e-06 -0.0576583 4.10976e-05 -1.44885e-05 -0.0576447 0.00011792 2.78303e-05 -0.0574971 5.26824e-05 -1.44249e-05 -0.0574603 -6.65791e-06 -1.70751e-05 -0.057432 4.02871e-05 -1.83336e-05 -0.0571797 7.21082e-05 -1.43029e-05 -0.0571518 0.000136957 2.3806e-05 -0.0569018 4.34709e-05 -2.25142e-05 -0.0566522 0.000130923 5.26511e-06 -0.056701 0.000137813 1.2925e-05 -0.0565935 3.86971e-05 -2.37375e-05 -0.0565751 0.000141159 2.93515e-05 -0.0564381 0.000143613 1.81628e-05 -0.0563907 0.000137406 5.50224e-06 -0.056372 0.000125418 7.5627e-07 -0.0563814 0.000147371 3.0661e-05 -0.0559325 0.000145692 1.31058e-05 -0.0559069 0.000152097 2.39707e-05 -0.0555999 0.000135624 -8.06193e-07 -0.055483 0.000125382 -5.66916e-06 -0.0554366 2.15203e-05 -3.96356e-05 -0.0551949 0.000149535 8.31761e-06 -0.0552321 0.00012488 -7.53478e-06 -0.0552071 0.000149823 6.83779e-06 -0.0551361 0.000100935 -2.1457e-05 -0.0549365 5.15497e-05 -4.01059e-05 -0.0547749 3.07947e-05 -4.43996e-05 -0.0546959 9.91465e-05 -2.66582e-05 -0.054469 0.000163993 2.91854e-05 -0.054241 4.98855e-05 -4.59073e-05 -0.0542679 0.000132195 -1.28171e-05 -0.0538944 1.0482e-05 -5.36539e-05 -0.0536382 2.81007e-05 -5.63702e-05 -0.0534095 0.000171417 3.44274e-05 -0.0533758 0.000113906 -2.76977e-05 -0.0534437 0.000169241 2.33991e-05 -0.0533315 8.73577e-05 -4.56107e-05 -0.0533001 7.57162e-05 -5.41187e-05 -0.0529052 0.000102677 -4.03124e-05 -0.0528386 0.000175571 2.63599e-05 -0.0526036 0.000171969 9.61375e-06 -0.0525316 0.000141104 -1.91123e-05 -0.0523702 8.72454e-05 -5.61488e-05 -0.0520744 5.3963e-06 -6.8614e-05 -0.0520808 2.55485e-05 -7.10955e-05 -0.0519413 
</DataArray>
<DataArray type="Float32" Name="Force" NumberOfComponents="3" >
-1.72647e-12 -1.41471e-12 4.16188e-11 -1.14444e-12 -2.15152e-14 4.10984e-11 9.48736e-14 -1.74449e-12 4.19578e-11 -1.89482e-12 -1.03696e-12 4.13916e-11 -1.94816e-12 1.20546e-13 4.08264e-11 -1.35042e-12 9.97317e-13 4.05819e-11 9.85744e-13 -2.24211e-12 4.18278e-11 1.40947e-12 -3.18437e-12 4.14148e-11 2.73108e-12 1.49466e-12 3.80158e-11 3.64032e-12 -3.25538e-12 4.04385e-11 3.79055e-12 9.06239e-13 3.7908e-11 4.011e-12 -1.53028e-12 3.85879e-11 -3.96375e-13 5.04971e-12 3.84517e-11 3.72594e-12 -3.82789e-12 3.90573e-11 3.65387e-12 2.70097e-12 3.64873e-11 4.27586e-12 -2.13394e-12 3.74199e-11 4.28569e-12 -1.04411e-12 3.67826e-11 2.79806e-12 4.13385e-12 3.62916e-11 5.43373e-13 5.71644e-12 3.7221e-11 -1.96615e-13 6.25591e-12 3.77662e-11 3.66506e-12 3.73401e-12 3.55941e-11 3.30349e-12 4.02945e-12 3.57864e-11 4.27947e-12 -3.22878e-12 3.69652e-11 4.47526e-12 3.72731e-13 3.50837e-11 4.31892e-12 2.3402e-12 3.54405e-11 4.49365e-12 1.70528e-12 3.44678e-11 1.27998e-12 6.05276e-12 3.60806e-11 4.09274e-12 -3.91135e-12 3.66394e-11 2.06222e-12 5.91719e-12 3.53542e-11 -1.56817e-12 6.70739e-12 3.76434e-11 1.20245e-12 6.48018e-12 3.67883e-11 3.20899e-12 5.70156e-12 3.41862e-11 4.62481e-12 -2.75576e-12 3.40738e-11 1.27543e-12 6.85665e-12 3.5865e-11 4.64063e-12 1.36166e-12 3.17672e-11 4.6216e-12 -3.36013e-13 3.18263e-11 9.82187e-13 7.05893e-12 3.59135e-11 4.28779e-12 -3.41905e-12 3.34372e-11 4.51543e-12 -1.38658e-12 3.34342e-11 4.57576e-12 1.10513e-12 3.09424e-11 4.40751e-12 2.39251e-12 3.13689e-11 4.16639e-12 -3.42263e-12 3.45937e-11 4.43925e-12 -2.20803e-13 3.24059e-11 4.22526e-12 -2.02535e-12 3.18382e-11 4.25718e-12 2.70173e-12 3.12827e-11 4.12534e-12 3.76477e-12 2.94374e-11 2.68401e-13 9.07397e-12 3.43865e-11 4.16853e-12 8.51073e-13 3.05958e-11 4.04302e-12 4.1431e-12 2.89791e-11 4.11557e-12 1.12402e-12 3.03565e-11 3.58152e-12 6.25364e-12 3.12495e-11 1.58992e-12 8.57577e-12 3.30488e-11 7.46787e-13 9.36782e-12 3.46044e-11 3.44011e-12 6.77461e-12 3.08288e-11 3.48653e-12 -2.00151e-12 2.89319e-11 1.60777e-12 8.96874e-12 3.3623e-11 3.77692e-12 4.98514e-12 2.87333e-11 2.46402e-13 9.58987e-12 3.42569e-11 8.91185e-13 9.58644e-12 3.40092e-11 2.82459e-12 -2.38272e-12 2.88377e-11 3.76538e-12 6.84398e-12 2.8567e-11 2.84041e-12 -8.16341e-13 2.72954e-11 3.30721e-12 8.32145e-12 3.01681e-11 2.72173e-12 8.91947e-12 3.16437e-11 3.61052e-12 7.90012e-12 2.86585e-11 2.24689e-12 -1.06773e-12 2.80937e-11 2.37466e-12 1.04628e-12 2.61835e-11 3.23591e-12 5.31084e-12 2.67418e-11 2.8651e-12 8.87328e-12 3.14365e-11 6.04126e-13 1.01495e-11 3.25123e-11 9.89136e-13 1.00934e-11 3.24483e-11 
</DataArray>
<DataArray type="Float32" Name="Active" NumberOfComponents="1" >
1 1 1 1 1 1 1 1 1 1 1 1 1 1 1 1 1 1 1 1 1 1 1 1 1 1 1 1 1 1 1 1 1 1 1 1 1 1 1 1 1 1 1 1 1 1 1 1 1 1 1 1 1 1 1 1 1 1 1 1 1 1 1 1 1 1 1 1 1 1 1 
</DataArray>
</PointData>
<CellData /> 
<Cells>
<DataArray type="Int32" Name="connectivity" format="ascii">
0 1 2 3 4 5 6 7 8 9 10 11 12 13 14 15 16 17 18 19 20 21 22 23 24 25 26 27 28 29 30 31 32 33 34 35 36 37 38 39 40 41 42 43 44 45 46 47 48 49 50 51 52 53 54 55 56 57 58 59 60 61 62 63 64 65 66 67 68 69 70 </DataArray>
<DataArray type="Int32" Name="offsets" format="ascii">
1 2 3 4 5 6 7 8 9 10 11 12 13 14 15 16 17 18 19 20 21 22 23 24 25 26 27 28 29 30 31 32 33 34 35 36 37 38 39 40 41 42 43 44 45 46 47 48 49 50 51 52 53 54 55 56 57 58 59 60 61 62 63 64 65 66 67 68 69 70 71 </DataArray>
<DataArray type="UInt8" Name="types" format="ascii">
1 1 1 1 1 1 1 1 1 1 1 1 1 1 1 1 1 1 1 1 1 1 1 1 1 1 1 1 1 1 1 1 1 1 1 1 1 1 1 1 1 1 1 1 1 1 1 1 1 1 1 1 1 1 1 1 1 1 1 1 1 1 1 1 1 1 1 1 1 1 1 </DataArray>
</Cells>
<Points>
<DataArray type="Float32" Name="Position" NumberOfComponents="3" >
-6.27898e-05 0.000155377 0.0372205 3.50062e-05 -0.000207389 0.0372777 0.00037767 0.000185292 0.037215 -0.000114993 6.65475e-05 0.0372471 -0.000165551 -0.000220666 0.0373196 -5.14884e-05 -0.000457097 0.0373515 0.000597509 0.000283018 0.0373302 0.000734156 0.000511162 0.0375388 0.00098973 -0.00067668 0.0377898 0.00136677 0.000481204 0.0379174 0.00134085 -0.000533039 0.0379701 0.0014597 4.02803e-05 0.0379909 0.000177602 -0.00152324 0.0381217 0.00152896 0.000634133 0.0382356 0.00129493 -0.000944567 0.0381525 0.0016278 0.000177668 0.0381927 0.00164547 -6.48823e-05 0.0382805 0.00103802 -0.00129692 0.0383598 0.000444663 -0.00170742 0.0384099 0.000271589 -0.00184985 0.0384412 0.00130995 -0.00119323 0.0384242 0.00119313 -0.00127296 0.0384332 0.00180598 0.000460579 0.0385268 0.00178668 -0.000391906 0.0385558 0.00165552 -0.000847835 0.0385207 0.00178984 -0.000706922 0.0386363 0.000624873 -0.00183747 0.0386562 0.00185041 0.000661867 0.0387022 0.000836915 -0.00181963 0.0387691 -0.000214629 -0.00199215 0.0387644 0.000607016 -0.00201045 0.038924 0.0011995 -0.00178536 0.03897 0.00224054 0.000344607 0.0390838 0.000659532 -0.00216972 0.0392531 0.00219824 -0.000736591 0.0392369 0.00231199 -0.000304758 0.0392918 0.000566818 -0.00222672 0.0392949 0.00233838 0.000589314 0.0393599 0.0024272 -2.45595e-05 0.0394021 0.00234133 -0.000726552 0.0394394 0.00215208 -0.00103493 0.0394248 0.00250127 0.000594291 0.0396452 0.002531 -0.000341611 0.0396889 0.00266728 0.000178549 0.0398714 0.00243222 -0.00115512 0.0399642 0.00227362 -0.0014279 0.0400154 0.000213708 -0.00278483 0.0401501 0.00268869 -0.000614971 0.0401083 0.00229592 -0.00153312 0.0401562 0.00270795 -0.000686156 0.0401734 0.00186762 -0.00210105 0.0403021 0.000790118 -0.00275489 0.0404089 0.000376985 -0.00291654 0.0404477 0.00184413 -0.00227645 0.0405909 0.00304466 0.000238844 0.0407179 0.000751287 -0.00293078 0.0407132 0.00259765 -0.00174222 0.0409476 -9.03704e-06 -0.00317698 0.0410654 0.000312342 -0.00323897 0.0412125 0.0032612 0.0003662 0.0412363 0.00224086 -0.00231034 0.0412335 0.00326246 -6.55116e-05 0.0412826 0.00158799 -0.00286865 0.0413103 0.00130574 -0.0031243 0.041521 0.00201607 -0.00268906 0.041596 0.00346158 -8.81668e-06 0.0417271 0.00342944 -0.000580321 0.0417852 0.00296264 -0.00185345 0.0418922 0.00165276 -0.00313901 0.0420305 -0.000142821 -0.00353143 0.0420307 0.000246336 -0.00359101 0.0421141 
</DataArray>
</Points>
</Piece>
</UnstructuredGrid>
</VTKFile>
