<?xml version="1.0"?>
<VTKFile type="UnstructuredGrid" version="0.1" byte_order="LittleEndian">
<UnstructuredGrid>
<Piece NumberOfPoints="57" NumberOfCells="57">
<PointData Vectors="Particles">
<DataArray type="Float32" Name="Mass" NumberOfComponents="1" >
1.41117e-08 1.41117e-08 1.41117e-08 1.41117e-08 1.41117e-08 1.41117e-08 1.41117e-08 1.41117e-08 1.41117e-08 1.41117e-08 1.41117e-08 1.41117e-08 1.41117e-08 1.41117e-08 1.41117e-08 1.41117e-08 1.41117e-08 1.41117e-08 1.41117e-08 1.41117e-08 1.41117e-08 1.41117e-08 1.41117e-08 1.41117e-08 1.41117e-08 1.41117e-08 1.41117e-08 1.41117e-08 1.41117e-08 1.41117e-08 1.41117e-08 1.41117e-08 1.41117e-08 1.41117e-08 1.41117e-08 1.41117e-08 1.41117e-08 1.41117e-08 1.41117e-08 1.41117e-08 1.41117e-08 1.41117e-08 1.41117e-08 1.41117e-08 1.41117e-08 1.41117e-08 1.41117e-08 1.41117e-08 1.41117e-08 1.41117e-08 1.41117e-08 1.41117e-08 1.41117e-08 1.41117e-08 1.41117e-08 1.41117e-08 1.41117e-08 
</DataArray>
<DataArray type="Float32" Name="Radius" NumberOfComponents="1" >
0.00015 0.00015 0.00015 0.00015 0.00015 0.00015 0.00015 0.00015 0.00015 0.00015 0.00015 0.00015 0.00015 0.00015 0.00015 0.00015 0.00015 0.00015 0.00015 0.00015 0.00015 0.00015 0.00015 0.00015 0.00015 0.00015 0.00015 0.00015 0.00015 0.00015 0.00015 0.00015 0.00015 0.00015 0.00015 0.00015 0.00015 0.00015 0.00015 0.00015 0.00015 0.00015 0.00015 0.00015 0.00015 0.00015 0.00015 0.00015 0.00015 0.00015 0.00015 0.00015 0.00015 0.00015 0.00015 0.00015 0.00015 
</DataArray>
<DataArray type="Float32" Name="Velocity" NumberOfComponents="3" >
0.000530606 -0.000413114 -0.0305952 0.000957289 -0.000380137 -0.0314417 0.00197054 -0.00026839 -0.0369091 -1.90856e-05 -0.000755385 -0.033775 0.00208465 -0.000439511 -0.0372295 0.00216898 -0.000281589 -0.0377105 0.00210414 -0.000512508 -0.037169 0.00124727 -0.000748215 -0.0350329 0.00214771 -0.000491004 -0.0373912 0.0022731 -0.000143535 -0.0382423 8.82084e-05 -0.000813891 -0.0341877 0.00101659 -0.000337123 -0.0318709 -0.000168368 -0.000817048 -0.034324 0.00150612 -0.000728145 -0.0355031 0.00187008 -0.000681983 -0.0362248 0.00112489 -0.000792747 -0.0351263 0.00204451 -0.00072668 -0.0368611 0.00251272 -0.000424704 -0.0388704 0.00200263 -0.000759304 -0.0368009 0.00165887 -0.000805276 -0.0361937 0.00136001 -0.000840304 -0.0358593 0.00246835 -0.000674807 -0.0382998 0.00221687 -0.000766223 -0.0374274 0.00278558 -0.000190612 -0.0399658 0.00274571 -0.000436993 -0.039577 0.00280353 -0.000302733 -0.0399403 0.00295801 -0.000192698 -0.0404459 0.00191897 -0.000877777 -0.0370037 0.00178693 -0.000896834 -0.03676 0.000123139 -0.000412641 -0.0304493 0.00101025 -0.000378855 -0.0318326 0.000778347 -0.000427598 -0.0311559 0.00108898 -0.000114283 -0.0328604 0.000974144 -0.000413179 -0.031711 0.00107919 -0.000367133 -0.0322621 0.00111706 -0.000340293 -0.0324701 0.00106464 -0.000425165 -0.0321725 0.00118295 -0.000235418 -0.0332111 0.00119493 -0.000415131 -0.0328631 0.00128904 -0.000102269 -0.0340238 0.000403304 -0.000510179 -0.031721 0.0013646 -0.000176963 -0.0342937 0.00137492 -0.000135821 -0.0344476 0.000687437 -0.000531049 -0.0322094 0.00138444 -0.000482521 -0.0338697 0.000514304 -0.000591647 -0.0326154 0.00112593 -0.000559571 -0.0334431 0.00139394 -0.000522679 -0.0340202 2.16674e-05 -0.000633118 -0.0326886 0.00168018 -0.000357183 -0.0354753 -0.000101954 -0.000648013 -0.0328753 0.00159773 -0.000515035 -0.0349105 0.00187498 -0.000392905 -0.0363621 0.00148071 -0.000597784 -0.0346187 0.00185 -0.000322326 -0.0363369 0.00164869 -0.00051755 -0.0351306 0.00147666 -0.00056557 -0.0344982 
</DataArray>
<DataArray type="Float32" Name="Force" NumberOfComponents="3" >
3.20708e-11 -1.57997e-11 8.93092e-11 5.11105e-11 -9.35903e-12 3.6072e-11 8.91307e-11 -8.80174e-12 3.87396e-11 -5.47631e-12 -2.71889e-11 2.12851e-10 9.23155e-11 -1.46798e-11 6.65349e-11 9.67613e-11 -9.2778e-12 4.95192e-11 9.35235e-11 -1.7245e-11 8.23366e-11 5.20837e-11 -2.66165e-11 1.97387e-10 9.60467e-11 -1.65005e-11 7.70607e-11 1.01973e-10 -4.56912e-12 4.52498e-11 -1.99359e-12 -2.6814e-11 2.34561e-10 5.37597e-11 -6.73385e-12 2.2896e-11 -1.38344e-11 -2.72297e-11 2.33576e-10 6.39163e-11 -2.48805e-11 1.76545e-10 8.0818e-11 -2.33136e-11 1.44909e-10 4.70751e-11 -2.69159e-11 2.14474e-10 9.00213e-11 -2.4227e-11 1.63335e-10 1.13359e-10 -1.48842e-11 8.2961e-11 8.77391e-11 -2.4718e-11 1.8061e-10 7.18967e-11 -2.56516e-11 2.07645e-10 5.7986e-11 -2.55481e-11 2.3466e-10 1.12727e-10 -2.30319e-11 1.41772e-10 1.00925e-10 -2.4349e-11 1.81448e-10 1.30394e-10 -6.61908e-12 7.52938e-11 1.2823e-10 -1.4798e-11 9.49795e-11 1.31994e-10 -1.06252e-11 8.03001e-11 1.42449e-10 -6.65093e-12 8.40767e-11 9.09309e-11 -2.58424e-11 2.40541e-10 8.46312e-11 -2.55601e-11 2.59832e-10 1.11909e-11 -2.03518e-11 1.06587e-10 5.2509e-11 -9.52715e-12 3.53108e-11 4.21609e-11 -1.53978e-11 7.63936e-11 5.58776e-11 1.23779e-12 -3.15127e-12 5.05571e-11 -1.20954e-11 5.10944e-11 5.56529e-11 -9.26834e-12 2.99526e-11 5.72666e-11 -8.38772e-12 2.26333e-11 5.31359e-11 -1.20838e-11 5.56911e-11 6.15869e-11 -3.53613e-12 3.87429e-12 5.83343e-11 -1.19421e-11 4.85392e-11 6.52366e-11 -3.3356e-13 9.5409e-13 2.20397e-11 -2.18495e-11 1.30985e-10 6.81648e-11 -2.76806e-12 2.22677e-12 6.9022e-11 -1.86317e-12 3.04325e-12 3.3222e-11 -2.02889e-11 1.24303e-10 6.31119e-11 -1.54041e-11 7.29573e-11 2.25905e-11 -2.26045e-11 1.53796e-10 5.04234e-11 -1.94325e-11 1.17449e-10 6.26152e-11 -1.62207e-11 8.28857e-11 -8.90816e-13 -2.39745e-11 1.69911e-10 7.83697e-11 -1.17516e-11 3.78992e-11 -7.31424e-12 -2.44954e-11 1.74053e-10 7.01939e-11 -1.66548e-11 8.41276e-11 8.3794e-11 -1.32543e-11 5.18116e-11 6.33304e-11 -1.98949e-11 1.20948e-10 8.42095e-11 -1.07583e-11 4.11329e-11 7.23339e-11 -1.71398e-11 8.42324e-11 6.42476e-11 -1.81627e-11 1.02674e-10 
</DataArray>
<DataArray type="Float32" Name="Active" NumberOfComponents="1" >
1 1 1 1 1 1 1 1 1 1 1 1 1 1 1 1 1 1 1 1 1 1 1 1 1 1 1 1 1 1 1 1 1 1 1 1 1 1 1 1 1 1 1 1 1 1 1 1 1 1 1 1 1 1 1 1 1 
</DataArray>
</PointData>
<CellData /> 
<Cells>
<DataArray type="Int32" Name="connectivity" format="ascii">
0 1 2 3 4 5 6 7 8 9 10 11 12 13 14 15 16 17 18 19 20 21 22 23 24 25 26 27 28 29 30 31 32 33 34 35 36 37 38 39 40 41 42 43 44 45 46 47 48 49 50 51 52 53 54 55 56 </DataArray>
<DataArray type="Int32" Name="offsets" format="ascii">
1 2 3 4 5 6 7 8 9 10 11 12 13 14 15 16 17 18 19 20 21 22 23 24 25 26 27 28 29 30 31 32 33 34 35 36 37 38 39 40 41 42 43 44 45 46 47 48 49 50 51 52 53 54 55 56 57 </DataArray>
<DataArray type="UInt8" Name="types" format="ascii">
1 1 1 1 1 1 1 1 1 1 1 1 1 1 1 1 1 1 1 1 1 1 1 1 1 1 1 1 1 1 1 1 1 1 1 1 1 1 1 1 1 1 1 1 1 1 1 1 1 1 1 1 1 1 1 1 1 </DataArray>
</Cells>
<Points>
<DataArray type="Float32" Name="Position" NumberOfComponents="3" >
0.00227659 0.00625101 0.0284105 0.00500776 0.00458276 0.028388 0.00622226 0.00164788 0.0209521 1.28708e-05 0.00578909 0.0208192 0.00574648 0.00258777 0.0199234 0.00615948 0.00158431 0.0196052 0.00542813 0.00303455 0.0194658 0.00258573 0.00520818 0.0196149 0.00553636 0.00283987 0.0192998 0.00629232 0.000808247 0.0190182 0.000235717 0.00566193 0.0196359 0.00574381 0.00368712 0.0282687 -0.000230359 0.00562672 0.0195161 0.00316656 0.00490781 0.0192838 0.00415532 0.00432834 0.0191165 0.00221277 0.00524705 0.0190105 0.00413715 0.00417175 0.0177224 0.00580472 0.00206267 0.0172838 0.00390895 0.0043161 0.0174883 0.00309274 0.00473565 0.0174987 0.00244868 0.00498365 0.0174935 0.00489819 0.00334844 0.0164834 0.00412052 0.00402584 0.0164662 0.00608922 0.000874998 0.0159533 0.00574571 0.0019511 0.0159336 0.00599159 0.00132682 0.0158046 0.0060335 0.000839234 0.0150554 0.00315612 0.00448016 0.0156023 0.00288034 0.00459306 0.0154841 0.000513657 0.00657889 0.0282216 0.0051593 0.00437659 0.0280161 0.00330524 0.00577262 0.0278564 0.0067772 0.000953484 0.0277978 0.00448601 0.00497974 0.027766 0.00539012 0.00403723 0.0275292 0.00584356 0.00345171 0.0273929 0.0046219 0.00480182 0.0270363 0.0064652 0.00203384 0.0269354 0.00507206 0.0042797 0.0262325 0.00668575 0.000847867 0.026112 0.00123735 0.00624573 0.0258511 0.006557 0.00142971 0.0254781 0.00661164 0.00109909 0.0254163 0.00209614 0.00597228 0.0251857 0.00480122 0.00437 0.0243324 0.00135093 0.00602963 0.023962 0.00327064 0.00536622 0.0237439 0.0043805 0.00464125 0.0236227 5.08e-05 0.00608963 0.0234814 0.00600803 0.0025459 0.0229005 -0.000238523 0.00603838 0.0231364 0.00486024 0.00410173 0.0225659 0.00589945 0.0025449 0.0214632 0.0039023 0.00480376 0.0218039 0.00612373 0.00208414 0.0217392 0.00491722 0.00400155 0.0222123 0.00416587 0.00467927 0.0224298 
</DataArray>
</Points>
</Piece>
</UnstructuredGrid>
</VTKFile>
