<?xml version="1.0"?>
<VTKFile type="UnstructuredGrid" version="0.1" byte_order="LittleEndian">
<UnstructuredGrid>
<Piece NumberOfPoints="19" NumberOfCells="19">
<PointData Vectors="Particles">
<DataArray type="Float32" Name="Mass" NumberOfComponents="1" >
1.41117e-08 1.41117e-08 1.41117e-08 1.41117e-08 1.41117e-08 1.41117e-08 1.41117e-08 1.41117e-08 1.41117e-08 1.41117e-08 1.41117e-08 1.41117e-08 1.41117e-08 1.41117e-08 1.41117e-08 1.41117e-08 1.41117e-08 1.41117e-08 1.41117e-08 
</DataArray>
<DataArray type="Float32" Name="Radius" NumberOfComponents="1" >
0.00015 0.00015 0.00015 0.00015 0.00015 0.00015 0.00015 0.00015 0.00015 0.00015 0.00015 0.00015 0.00015 0.00015 0.00015 0.00015 0.00015 0.00015 0.00015 
</DataArray>
<DataArray type="Float32" Name="Velocity" NumberOfComponents="3" >
-9.94345e-05 -3.21057e-05 -0.0257257 -0.000101901 2.30807e-05 -0.0256407 -6.11228e-05 -4.68107e-05 -0.0253415 -7.9225e-06 1.38454e-05 -0.025068 -8.96386e-05 1.47022e-05 -0.0248812 -8.82619e-05 1.51518e-05 -0.0249255 -7.03802e-05 -3.12789e-05 -0.0246103 -4.25713e-06 -3.42865e-06 -0.0241631 1.17666e-06 1.82386e-05 -0.0242187 -6.53543e-05 -1.9481e-05 -0.0244961 -2.45343e-05 -1.82642e-05 -0.0239786 -5.50983e-05 -6.74079e-06 -0.0241389 -7.20158e-05 3.60619e-06 -0.0239486 -6.52474e-05 1.0428e-06 -0.0238131 -7.82148e-05 1.4464e-05 -0.0236398 -9.95477e-05 -2.69852e-05 -0.0258476 -2.63521e-05 -1.97201e-05 -0.0254833 -2.32725e-05 2.26799e-06 -0.0255118 -0.000132407 -1.3804e-05 -0.0258282 
</DataArray>
<DataArray type="Float32" Name="Force" NumberOfComponents="3" >
-6.77256e-12 -4.21291e-12 1.82557e-12 -2.57742e-12 1.31687e-12 -2.66314e-12 -7.28644e-12 -6.72518e-12 6.65917e-12 -3.10593e-12 -5.69428e-12 1.70113e-11 -2.24972e-12 7.03332e-15 -6.62594e-15 -2.85986e-12 2.31224e-13 -3.87018e-13 -6.64389e-12 -6.54302e-13 2.34635e-12 -4.38546e-12 -7.51506e-12 1.51933e-11 -4.90402e-12 -6.10583e-12 1.51206e-11 -5.71122e-12 -1.94844e-12 3.34049e-12 -4.80901e-12 -5.78756e-12 1.24737e-11 -6.58544e-12 -2.84635e-12 8.84384e-12 -7.06016e-12 -5.72758e-14 6.03581e-12 -7.15148e-12 6.66238e-13 6.82169e-12 -1.21855e-12 -5.5716e-13 -5.46004e-13 -6.37063e-12 -5.8485e-12 3.32067e-12 -6.76126e-12 -8.73587e-12 1.45574e-11 -4.43687e-12 -8.04935e-12 1.72517e-11 -7.00935e-12 -9.66496e-13 -2.78083e-12 
</DataArray>
<DataArray type="Float32" Name="Active" NumberOfComponents="1" >
1 1 1 1 1 1 1 1 1 1 1 1 1 1 1 1 1 1 1 
</DataArray>
</PointData>
<CellData /> 
<Cells>
<DataArray type="Int32" Name="connectivity" format="ascii">
0 1 2 3 4 5 6 7 8 9 10 11 12 13 14 15 16 17 18 </DataArray>
<DataArray type="Int32" Name="offsets" format="ascii">
1 2 3 4 5 6 7 8 9 10 11 12 13 14 15 16 17 18 19 </DataArray>
<DataArray type="UInt8" Name="types" format="ascii">
1 1 1 1 1 1 1 1 1 1 1 1 1 1 1 1 1 1 1 </DataArray>
</Cells>
<Points>
<DataArray type="Float32" Name="Position" NumberOfComponents="3" >
-0.00536833 0.00509591 0.0424798 -0.00739148 0.000993389 0.0425585 -0.00292839 0.00683447 0.0427962 -0.000445381 0.00745446 0.0430457 -0.00738633 0.00151222 0.0433531 -0.00743063 0.00130569 0.0433664 -0.00556511 0.00505389 0.0438758 -0.00198175 0.00730284 0.0440157 -0.00136092 0.00743378 0.0440302 -0.00530367 0.00536026 0.0440473 -0.00268501 0.00708257 0.0444325 -0.00357478 0.00666162 0.0443766 -0.00415306 0.0063467 0.0445956 -0.00405465 0.00643463 0.0447988 -0.00746003 0.00171908 0.0449101 -0.00508376 0.00538811 0.0424155 -0.00148851 0.00726115 0.0424059 -0.000986432 0.00735182 0.0423892 -0.00627632 0.00392776 0.0423116 
</DataArray>
</Points>
</Piece>
</UnstructuredGrid>
</VTKFile>
