<?xml version="1.0"?>
<VTKFile type="UnstructuredGrid" version="0.1" byte_order="LittleEndian">
<UnstructuredGrid>
<Piece NumberOfPoints="4" NumberOfCells="4">
<PointData Vectors="Particles">
<DataArray type="Float32" Name="Mass" NumberOfComponents="1" >
1.41117e-08 1.41117e-08 1.41117e-08 1.41117e-08 
</DataArray>
<DataArray type="Float32" Name="Radius" NumberOfComponents="1" >
0.00015 0.00015 0.00015 0.00015 
</DataArray>
<DataArray type="Float32" Name="Velocity" NumberOfComponents="3" >
0 0 0 0 0 0 0 0 0 0 0 0 
</DataArray>
<DataArray type="Float32" Name="Force" NumberOfComponents="3" >
4.58971e-11 -1.77036e-12 9.41004e-11 1.55472e-10 -7.51779e-12 3.52603e-10 1.93595e-11 4.6302e-12 6.43224e-11 1.82146e-10 -7.15952e-12 4.48489e-10 
</DataArray>
<DataArray type="Float32" Name="Active" NumberOfComponents="1" >
0 0 0 0 
</DataArray>
</PointData>
<CellData /> 
<Cells>
<DataArray type="Int32" Name="connectivity" format="ascii">
0 1 2 3 </DataArray>
<DataArray type="Int32" Name="offsets" format="ascii">
1 2 3 4 </DataArray>
<DataArray type="UInt8" Name="types" format="ascii">
1 1 1 1 </DataArray>
</Cells>
<Points>
<DataArray type="Float32" Name="Position" NumberOfComponents="3" >
-0.013599 0.00178838 -0.0190305 -0.0111487 0.00214499 -0.0145275 -0.0155157 0.00147345 -0.0225392 -0.0106849 0.00179463 -0.0138733 
</DataArray>
</Points>
</Piece>
</UnstructuredGrid>
</VTKFile>
