<?xml version="1.0"?>
<VTKFile type="UnstructuredGrid" version="0.1" byte_order="LittleEndian">
<UnstructuredGrid>
<Piece NumberOfPoints="55" NumberOfCells="55">
<PointData Vectors="Particles">
<DataArray type="Float32" Name="Mass" NumberOfComponents="1" >
1.41117e-08 1.41117e-08 1.41117e-08 1.41117e-08 1.41117e-08 1.41117e-08 1.41117e-08 1.41117e-08 1.41117e-08 1.41117e-08 1.41117e-08 1.41117e-08 1.41117e-08 1.41117e-08 1.41117e-08 1.41117e-08 1.41117e-08 1.41117e-08 1.41117e-08 1.41117e-08 1.41117e-08 1.41117e-08 1.41117e-08 1.41117e-08 1.41117e-08 1.41117e-08 1.41117e-08 1.41117e-08 1.41117e-08 1.41117e-08 1.41117e-08 1.41117e-08 1.41117e-08 1.41117e-08 1.41117e-08 1.41117e-08 1.41117e-08 1.41117e-08 1.41117e-08 1.41117e-08 1.41117e-08 1.41117e-08 1.41117e-08 1.41117e-08 1.41117e-08 1.41117e-08 1.41117e-08 1.41117e-08 1.41117e-08 1.41117e-08 1.41117e-08 1.41117e-08 1.41117e-08 1.41117e-08 1.41117e-08 
</DataArray>
<DataArray type="Float32" Name="Radius" NumberOfComponents="1" >
0.00015 0.00015 0.00015 0.00015 0.00015 0.00015 0.00015 0.00015 0.00015 0.00015 0.00015 0.00015 0.00015 0.00015 0.00015 0.00015 0.00015 0.00015 0.00015 0.00015 0.00015 0.00015 0.00015 0.00015 0.00015 0.00015 0.00015 0.00015 0.00015 0.00015 0.00015 0.00015 0.00015 0.00015 0.00015 0.00015 0.00015 0.00015 0.00015 0.00015 0.00015 0.00015 0.00015 0.00015 0.00015 0.00015 0.00015 0.00015 0.00015 0.00015 0.00015 0.00015 0.00015 0.00015 0.00015 
</DataArray>
<DataArray type="Float32" Name="Velocity" NumberOfComponents="3" >
0.000428025 -0.000349471 -0.029276 0.000700956 -0.000367836 -0.030052 0.000267855 -8.29986e-05 -0.0263407 0.00023761 -0.000202176 -0.0260474 0.000347434 -0.000153473 -0.0266281 0.000293326 -0.000210621 -0.0263362 0.000300974 -0.00021319 -0.0264242 0.000362131 -0.000199383 -0.0268026 0.000315032 -0.000216865 -0.0265509 -2.26638e-06 -0.000181928 -0.0261507 0.000376526 -0.000235742 -0.0270495 7.68461e-05 -0.000202436 -0.026391 0.000386707 -0.00024707 -0.0272273 0.000443813 -0.000164107 -0.0278689 0.000367238 -0.000258506 -0.0276001 0.000536737 -0.000250905 -0.0285263 0.00050689 -0.000315677 -0.0284928 -1.71088e-06 -0.000233205 -0.0277433 0.000501225 -0.000318286 -0.0285435 0.000205558 -0.000282874 -0.0279826 0.000212144 -0.000287892 -0.0280801 -3.32716e-05 -0.000318781 -0.02922 0.000102935 -0.00032886 -0.0292791 0.000484607 -0.00036175 -0.0295803 0.000749439 -0.000364925 -0.0301863 0.000613127 -0.000369888 -0.0299663 0.000888215 -0.000117233 -0.0313731 0.000294067 -0.000360922 -0.0295556 5.31624e-05 -0.000342467 -0.0295209 0.00092297 -0.000168432 -0.0315202 0.000913339 -0.000278247 -0.0313127 0.000329625 -0.000379609 -0.0298842 0.000919554 -0.000361924 -0.0312421 0.000611388 -0.00039817 -0.0303945 0.00070399 -0.000404744 -0.030679 0.000466835 -0.000404101 -0.0303643 0.000215608 -0.000396577 -0.0302351 0.000996693 -0.000370563 -0.0317007 0.000957081 -0.000411579 -0.0315815 0.00115218 -0.000283098 -0.0327404 0.00116803 -0.000279025 -0.0328379 0.000537601 -0.000462169 -0.0312253 0.000130215 -0.00047362 -0.0310798 0.000166386 -0.000476852 -0.0311432 0.00100759 -0.000451892 -0.032056 0.000463956 -0.000307511 -0.0284957 0.00062947 -0.000166119 -0.02945 0.000156263 -0.000287149 -0.0280783 0.000429963 -0.000314404 -0.0286789 0.00063665 -0.000306645 -0.0293654 0.000605771 -0.000341744 -0.0292552 -5.51865e-05 -0.00026602 -0.028489 0.000601135 -0.000345682 -0.0293449 7.09096e-05 -0.000293867 -0.0287124 -5.62887e-05 -0.000284316 -0.0287509 
</DataArray>
<DataArray type="Float32" Name="Force" NumberOfComponents="3" >
3.02314e-11 -1.3465e-11 6.9207e-11 4.55881e-11 -9.8478e-12 3.87103e-11 2.10295e-11 -6.59169e-12 -1.75296e-11 1.80614e-11 -9.30402e-12 2.25706e-11 2.26981e-11 -9.18747e-12 -9.18205e-12 1.84883e-11 -8.66025e-12 1.81932e-11 1.86534e-11 -8.6194e-12 1.8587e-11 2.88339e-11 -8.67822e-12 -7.23726e-12 1.87644e-11 -8.53023e-12 1.82186e-11 1.30286e-12 -8.45287e-12 4.35371e-11 2.10918e-11 -1.62314e-11 5.6086e-12 1.81855e-12 -1.20268e-11 4.48869e-11 1.88012e-11 -1.84309e-11 9.54481e-12 2.93891e-11 -8.34641e-12 -1.2586e-11 2.23111e-11 -1.33096e-11 3.46099e-11 3.21824e-11 -1.04404e-11 -9.43297e-12 3.28713e-11 -1.08052e-11 1.95125e-12 5.59904e-12 -1.09744e-11 6.02116e-11 3.44502e-11 -1.3511e-11 2.12657e-11 1.5208e-11 -1.36133e-11 5.50603e-11 1.57925e-11 -1.3579e-11 5.60274e-11 7.25064e-12 -1.8553e-11 8.6146e-11 1.54572e-11 -1.61251e-11 8.44226e-11 3.24785e-11 -1.33543e-11 7.04489e-11 4.71794e-11 -8.07196e-12 3.66975e-11 3.78515e-11 -1.31172e-11 5.91279e-11 4.92307e-11 1.83912e-12 -8.9039e-12 2.55942e-11 -1.40182e-11 8.27421e-11 1.20465e-11 -1.86547e-11 9.18753e-11 4.97437e-11 2.83688e-13 -6.23891e-12 5.06041e-11 -5.18029e-12 4.16647e-12 2.53136e-11 -1.51422e-11 8.91511e-11 5.14315e-11 -6.88834e-12 2.90027e-11 3.58167e-11 -1.4257e-11 7.74915e-11 3.99578e-11 -1.41969e-11 7.10735e-11 2.95607e-11 -1.56253e-11 8.96974e-11 1.75787e-11 -1.81435e-11 9.87834e-11 5.263e-11 -8.66506e-12 3.17041e-11 5.01129e-11 -1.20445e-11 5.08056e-11 5.94871e-11 -5.75879e-12 8.13168e-12 6.02361e-11 -5.53925e-12 7.20443e-12 3.01752e-11 -1.89554e-11 1.08145e-10 1.06989e-11 -2.39933e-11 1.25406e-10 1.24552e-11 -2.36201e-11 1.25514e-10 4.94826e-11 -1.46331e-11 7.35703e-11 3.05375e-11 -1.38432e-11 3.53009e-11 4.21578e-11 -3.26345e-12 -1.42056e-11 1.42298e-11 -1.23529e-11 6.09559e-11 2.81634e-11 -1.43457e-11 4.51669e-11 4.1231e-11 -2.91021e-12 3.63707e-12 4.24501e-11 -9.35192e-12 2.6076e-11 4.83246e-12 -1.5313e-11 7.21903e-11 4.21506e-11 -1.08684e-11 3.11559e-11 1.31283e-11 -1.39396e-11 7.38032e-11 5.44376e-12 -1.64729e-11 7.6751e-11 
</DataArray>
<DataArray type="Float32" Name="Active" NumberOfComponents="1" >
1 1 1 1 1 1 1 1 1 1 1 1 1 1 1 1 1 1 1 1 1 1 1 1 1 1 1 1 1 1 1 1 1 1 1 1 1 1 1 1 1 1 1 1 1 1 1 1 1 1 1 1 1 1 1 
</DataArray>
</PointData>
<CellData /> 
<Cells>
<DataArray type="Int32" Name="connectivity" format="ascii">
0 1 2 3 4 5 6 7 8 9 10 11 12 13 14 15 16 17 18 19 20 21 22 23 24 25 26 27 28 29 30 31 32 33 34 35 36 37 38 39 40 41 42 43 44 45 46 47 48 49 50 51 52 53 54 </DataArray>
<DataArray type="Int32" Name="offsets" format="ascii">
1 2 3 4 5 6 7 8 9 10 11 12 13 14 15 16 17 18 19 20 21 22 23 24 25 26 27 28 29 30 31 32 33 34 35 36 37 38 39 40 41 42 43 44 45 46 47 48 49 50 51 52 53 54 55 </DataArray>
<DataArray type="UInt8" Name="types" format="ascii">
1 1 1 1 1 1 1 1 1 1 1 1 1 1 1 1 1 1 1 1 1 1 1 1 1 1 1 1 1 1 1 1 1 1 1 1 1 1 1 1 1 1 1 1 1 1 1 1 1 1 1 1 1 1 1 </DataArray>
</Cells>
<Points>
<DataArray type="Float32" Name="Position" NumberOfComponents="3" >
0.00255126 0.00639825 0.0307035 0.00440228 0.00532509 0.030411 0.00734319 0.00104745 0.0367247 0.00359327 0.00643275 0.036309 0.00690971 0.00262711 0.0360082 0.00421336 0.00600179 0.0359599 0.00423012 0.00597864 0.0358293 0.0064856 0.00350119 0.0358365 0.00431291 0.00590846 0.0356627 0.00065916 0.00723608 0.0356841 0.00588549 0.00434579 0.0353693 0.00130378 0.00713703 0.0352879 0.0054206 0.00485467 0.0350162 0.00699563 0.00200064 0.0344123 0.00359343 0.00620081 0.0338282 0.00644113 0.00321676 0.03344 0.00574797 0.00427822 0.033259 0.000480408 0.00702196 0.0329809 0.00476392 0.00527109 0.0327309 0.00186604 0.00678089 0.0326819 0.00186686 0.00676636 0.0325217 1.0709e-05 0.00680315 0.0303536 0.000697217 0.00675943 0.0302835 0.00269952 0.00628479 0.0302249 0.00473234 0.00503345 0.0301737 0.00335336 0.00595368 0.029953 0.00690904 0.000966785 0.0296931 0.00157589 0.00660326 0.0299292 0.000371989 0.00674934 0.0297918 0.006814 0.00147069 0.0293544 0.00628329 0.00290532 0.0293077 0.0015995 0.00654495 0.0293868 0.00525725 0.00437881 0.0289679 0.00286118 0.00607848 0.0288644 0.00326012 0.00587228 0.0286425 0.00206536 0.00634473 0.0287011 0.000941031 0.00657818 0.0286651 0.00524535 0.00430739 0.0282222 0.00444888 0.00502889 0.0278993 0.00629068 0.00259221 0.0271793 0.00632365 0.00250988 0.0270572 0.00193326 0.00620801 0.0269884 0.000434436 0.00645884 0.0269008 0.000552446 0.00643414 0.0268045 0.00398134 0.00525641 0.0266555 0.00380822 0.00593639 0.0324182 0.00698327 0.00150564 0.0322413 0.0014633 0.0068553 0.0323514 0.00317248 0.00623816 0.0320403 0.00594452 0.00384234 0.0319391 0.0048097 0.00511287 0.031632 -5.44192e-06 0.00692102 0.0316777 0.00457393 0.00531518 0.0315809 0.00070633 0.00684984 0.0312872 -4.598e-05 0.00687791 0.031202 
</DataArray>
</Points>
</Piece>
</UnstructuredGrid>
</VTKFile>
