<?xml version="1.0"?>
<VTKFile type="UnstructuredGrid" version="0.1" byte_order="LittleEndian">
<UnstructuredGrid>
<Piece NumberOfPoints="3" NumberOfCells="3">
<PointData Vectors="Particles">
<DataArray type="Float32" Name="Mass" NumberOfComponents="1" >
1.41117e-08 1.41117e-08 1.41117e-08 
</DataArray>
<DataArray type="Float32" Name="Radius" NumberOfComponents="1" >
0.00015 0.00015 0.00015 
</DataArray>
<DataArray type="Float32" Name="Velocity" NumberOfComponents="3" >
-0.00014457 -0.000227601 -0.0555681 3.12337e-05 -0.000267911 -0.0554461 -2.12604e-05 -0.000259832 -0.0554673 
</DataArray>
<DataArray type="Float32" Name="Force" NumberOfComponents="3" >
-1.5456e-11 -1.32397e-11 2.96398e-10 -2.4757e-12 -1.54447e-11 2.98353e-10 -6.32874e-12 -1.5026e-11 2.97861e-10 
</DataArray>
<DataArray type="Float32" Name="Active" NumberOfComponents="1" >
1 1 1 
</DataArray>
</PointData>
<CellData /> 
<Cells>
<DataArray type="Int32" Name="connectivity" format="ascii">
0 1 2 </DataArray>
<DataArray type="Int32" Name="offsets" format="ascii">
1 2 3 </DataArray>
<DataArray type="UInt8" Name="types" format="ascii">
1 1 1 </DataArray>
</Cells>
<Points>
<DataArray type="Float32" Name="Position" NumberOfComponents="3" >
-0.000125788 0.0011003 0.0144999 0.000178411 0.00128416 0.0145976 8.71739e-05 0.00124707 0.0145795 
</DataArray>
</Points>
</Piece>
</UnstructuredGrid>
</VTKFile>
