<?xml version="1.0"?>
<VTKFile type="UnstructuredGrid" version="0.1" byte_order="LittleEndian">
<UnstructuredGrid>
<Piece NumberOfPoints="9" NumberOfCells="9">
<PointData Vectors="Particles">
<DataArray type="Float32" Name="Mass" NumberOfComponents="1" >
1.41117e-08 1.41117e-08 1.41117e-08 1.41117e-08 1.41117e-08 1.41117e-08 1.41117e-08 1.41117e-08 1.41117e-08 
</DataArray>
<DataArray type="Float32" Name="Radius" NumberOfComponents="1" >
0.00015 0.00015 0.00015 0.00015 0.00015 0.00015 0.00015 0.00015 0.00015 
</DataArray>
<DataArray type="Float32" Name="Velocity" NumberOfComponents="3" >
0 0 0 0 0 0 0 0 0 0 0 0 0 0 0 0 0 0 0 0 0 0 0 0 0 0 0 
</DataArray>
<DataArray type="Float32" Name="Force" NumberOfComponents="3" >
-1.48411e-11 -5.02569e-11 9.4354e-10 4.80776e-12 -2.44911e-11 3.65573e-10 -1.38252e-11 -5.04838e-11 9.54396e-10 -1.18293e-11 -5.12032e-11 9.28039e-10 -6.28956e-12 -3.75864e-11 2.44587e-10 -4.30282e-11 -4.32602e-11 1.08406e-09 7.23104e-13 -5.29105e-11 7.36957e-10 -1.30998e-11 -4.47032e-11 4.88474e-10 -2.23219e-11 -4.43048e-11 1.01743e-09 
</DataArray>
<DataArray type="Float32" Name="Active" NumberOfComponents="1" >
0 0 0 0 0 0 0 0 0 
</DataArray>
</PointData>
<CellData /> 
<Cells>
<DataArray type="Int32" Name="connectivity" format="ascii">
0 1 2 3 4 5 6 7 8 </DataArray>
<DataArray type="Int32" Name="offsets" format="ascii">
1 2 3 4 5 6 7 8 9 </DataArray>
<DataArray type="UInt8" Name="types" format="ascii">
1 1 1 1 1 1 1 1 1 </DataArray>
</Cells>
<Points>
<DataArray type="Float32" Name="Position" NumberOfComponents="3" >
-0.00050626 -0.00461516 0.00567496 -0.00066622 -0.00601687 0.00849991 -0.000295905 -0.00461642 0.00580321 -0.000566768 -0.00465691 0.00570046 -0.00132494 -0.00583508 0.00711439 -0.000564239 -0.00424291 0.00530124 -0.000537657 -0.00508497 0.00613663 -0.000612657 -0.00543807 0.00660439 -0.000286022 -0.00442754 0.00562015 
</DataArray>
</Points>
</Piece>
</UnstructuredGrid>
</VTKFile>
