<?xml version="1.0"?>
<VTKFile type="UnstructuredGrid" version="0.1" byte_order="LittleEndian">
<UnstructuredGrid>
<Piece NumberOfPoints="56" NumberOfCells="56">
<PointData Vectors="Particles">
<DataArray type="Float32" Name="Mass" NumberOfComponents="1" >
1.41117e-08 1.41117e-08 1.41117e-08 1.41117e-08 1.41117e-08 1.41117e-08 1.41117e-08 1.41117e-08 1.41117e-08 1.41117e-08 1.41117e-08 1.41117e-08 1.41117e-08 1.41117e-08 1.41117e-08 1.41117e-08 1.41117e-08 1.41117e-08 1.41117e-08 1.41117e-08 1.41117e-08 1.41117e-08 1.41117e-08 1.41117e-08 1.41117e-08 1.41117e-08 1.41117e-08 1.41117e-08 1.41117e-08 1.41117e-08 1.41117e-08 1.41117e-08 1.41117e-08 1.41117e-08 1.41117e-08 1.41117e-08 1.41117e-08 1.41117e-08 1.41117e-08 1.41117e-08 1.41117e-08 1.41117e-08 1.41117e-08 1.41117e-08 1.41117e-08 1.41117e-08 1.41117e-08 1.41117e-08 1.41117e-08 1.41117e-08 1.41117e-08 1.41117e-08 1.41117e-08 1.41117e-08 1.41117e-08 1.41117e-08 
</DataArray>
<DataArray type="Float32" Name="Radius" NumberOfComponents="1" >
0.00015 0.00015 0.00015 0.00015 0.00015 0.00015 0.00015 0.00015 0.00015 0.00015 0.00015 0.00015 0.00015 0.00015 0.00015 0.00015 0.00015 0.00015 0.00015 0.00015 0.00015 0.00015 0.00015 0.00015 0.00015 0.00015 0.00015 0.00015 0.00015 0.00015 0.00015 0.00015 0.00015 0.00015 0.00015 0.00015 0.00015 0.00015 0.00015 0.00015 0.00015 0.00015 0.00015 0.00015 0.00015 0.00015 0.00015 0.00015 0.00015 0.00015 0.00015 0.00015 0.00015 0.00015 0.00015 0.00015 
</DataArray>
<DataArray type="Float32" Name="Velocity" NumberOfComponents="3" >
0 0 0 0 0 0 0 0 0 0 0 0 -0.00991312 -0.00116839 -0.0266045 0 0 0 0 0 0 -0.00998983 -0.00120371 -0.0239164 -0.00384878 -0.000778032 -0.0152562 0 0 0 0 0 0 0 0 0 0 0 0 -0.00645998 -0.000356791 -0.0155043 -0.00885489 -0.000695365 -0.0193401 0 0 0 0 0 0 0 0 0 0 0 0 -0.0110554 -0.00116065 -0.0255534 -0.00804373 0.00017148 -0.0150223 -0.00756208 -0.000379042 -0.0166523 0 0 0 -0.00150713 -0.000929611 -0.012645 0 0 0 0 0 0 -0.000941907 -0.000938331 -0.0122558 -0.0123914 -0.000868906 -0.0297947 0 0 0 0 0 0 -0.00410557 -0.000645702 -0.0139434 0 0 0 -0.00586377 0.000623151 -0.0100074 -0.0047374 0.000248017 -0.00995407 0 0 0 -0.00440341 0.000609388 -0.00772649 -0.0112994 -0.000103275 -0.019982 -0.00677478 -0.000963141 -0.0190656 -0.00804863 -0.00127633 -0.0239611 0 0 0 -0.00878515 -0.00104381 -0.0266438 -0.0121496 -0.000826301 -0.0241179 -0.0116832 -0.00109795 -0.025797 0 0 0 -0.000857851 -0.00116563 -0.00963297 -0.00655314 -1.95364e-05 -0.0140054 -0.0030513 -0.000366581 -0.0092581 0 0 0 0 0 0 -0.00362303 0.000315123 -0.00728748 -0.00903713 0.000274098 -0.0158255 -0.00766785 -0.000828719 -0.0188655 0 0 0 0 0 0 0 0 0 -0.00854159 -0.00111753 -0.0215097 
</DataArray>
<DataArray type="Float32" Name="Force" NumberOfComponents="3" >
-2.77739e-11 2.51414e-11 2.00658e-09 -5.13771e-11 2.84627e-11 1.9915e-09 3.9725e-11 2.74224e-11 1.74843e-09 2.45297e-11 3.1054e-11 1.72672e-09 -2.95768e-10 6.36789e-12 -1.48022e-10 -7.73534e-11 3.90107e-11 1.84954e-09 -8.55889e-11 4.24762e-11 1.78235e-09 -2.67836e-10 1.57876e-11 -9.57931e-11 -9.73646e-11 1.9465e-11 1.25317e-10 3.98006e-12 3.7359e-11 1.66465e-09 -4.77414e-11 3.73917e-11 1.82192e-09 -5.19823e-11 3.84586e-11 1.7996e-09 -3.21055e-12 4.02515e-11 1.63502e-09 -1.41036e-10 3.41136e-11 9.03976e-11 -2.07868e-10 2.70949e-11 -9.66056e-12 -9.55185e-11 4.97972e-11 1.65213e-09 1.03659e-10 3.33555e-11 1.63898e-09 1.16017e-10 3.34659e-11 1.63347e-09 -3.17844e-11 3.7376e-11 1.7155e-09 -2.86667e-10 1.70261e-11 -1.39059e-10 -1.03881e-10 2.58538e-11 5.38979e-11 -1.65445e-10 2.92254e-11 5.15405e-11 9.04925e-11 4.67795e-11 9.63078e-10 -4.27345e-11 4.57145e-12 1.95582e-10 3.0781e-13 3.45747e-11 6.85855e-10 -2.14782e-11 4.95561e-11 1.52353e-09 -2.38241e-11 5.59259e-12 2.0705e-10 -3.42798e-10 1.37191e-11 -2.11537e-10 -1.92863e-11 5.30665e-11 1.44936e-09 -6.57182e-13 3.15571e-11 6.07654e-10 -9.7696e-11 3.26618e-11 1.39925e-10 -1.95495e-11 5.73075e-11 1.12698e-09 -6.31803e-12 9.8397e-12 9.91716e-11 -4.06462e-11 4.03173e-11 1.31944e-10 -1.18816e-11 6.94932e-11 6.79173e-10 8.40635e-12 8.3452e-12 1.07528e-10 -1.495e-10 2.00893e-11 -4.70008e-11 -1.95207e-10 8.79662e-12 2.33959e-11 -2.44417e-10 -3.959e-12 -8.39055e-11 -3.70338e-11 7.03907e-11 1.29449e-09 -2.80593e-10 -1.75473e-12 -1.42851e-10 -2.46912e-10 2.18218e-11 -1.21105e-10 -2.83676e-10 1.95046e-11 -1.4471e-10 -1.84188e-11 4.4562e-11 9.40632e-10 -4.28808e-12 6.44905e-12 3.14499e-10 -1.16425e-10 3.77539e-11 9.88742e-11 -2.65989e-11 4.43654e-11 1.97937e-10 -2.25466e-11 5.5645e-11 9.07847e-10 2.5505e-11 6.18502e-11 1.16213e-09 -2.81941e-12 2.49983e-11 1.26762e-10 -1.00903e-10 1.9616e-11 3.07934e-11 -2.0523e-10 1.73509e-11 1.49585e-11 5.24715e-11 4.9536e-11 9.21447e-10 -6.27858e-13 2.42471e-11 4.09818e-10 -4.65185e-11 5.94674e-11 1.16013e-09 -2.3196e-10 1.13372e-11 -3.8309e-11 
</DataArray>
<DataArray type="Float32" Name="Active" NumberOfComponents="1" >
0 0 0 0 1 0 0 1 1 0 0 0 0 1 1 0 0 0 0 1 1 1 0 1 0 0 1 1 0 0 1 0 1 1 0 1 1 1 1 0 1 1 1 0 1 1 1 0 0 1 1 1 0 0 0 1 
</DataArray>
</PointData>
<CellData /> 
<Cells>
<DataArray type="Int32" Name="connectivity" format="ascii">
0 1 2 3 4 5 6 7 8 9 10 11 12 13 14 15 16 17 18 19 20 21 22 23 24 25 26 27 28 29 30 31 32 33 34 35 36 37 38 39 40 41 42 43 44 45 46 47 48 49 50 51 52 53 54 55 </DataArray>
<DataArray type="Int32" Name="offsets" format="ascii">
1 2 3 4 5 6 7 8 9 10 11 12 13 14 15 16 17 18 19 20 21 22 23 24 25 26 27 28 29 30 31 32 33 34 35 36 37 38 39 40 41 42 43 44 45 46 47 48 49 50 51 52 53 54 55 56 </DataArray>
<DataArray type="UInt8" Name="types" format="ascii">
1 1 1 1 1 1 1 1 1 1 1 1 1 1 1 1 1 1 1 1 1 1 1 1 1 1 1 1 1 1 1 1 1 1 1 1 1 1 1 1 1 1 1 1 1 1 1 1 1 1 1 1 1 1 1 1 </DataArray>
</Cells>
<Points>
<DataArray type="Float32" Name="Position" NumberOfComponents="3" >
-0.000656836 0.000867148 0.00200185 -0.000758636 0.000906609 0.00206124 -0.00174662 0.00127646 0.00137524 -0.00169997 0.00138277 0.0015165 -0.0108114 0.00281845 0.00436681 -0.000808487 0.0016995 0.00224011 -0.000941659 0.00181083 0.00223046 -0.00976114 0.00416074 0.00452287 -0.00421787 0.00646596 0.0112198 -0.00170112 0.00173847 0.00170625 -0.000574663 0.0019524 0.00225613 -0.000645561 0.00205656 0.00228551 -0.00172842 0.00189489 0.00177284 -0.00569915 0.00605131 0.0070566 -0.0078172 0.00541384 0.00542265 -0.00117067 0.00220369 0.00227817 -0.00190597 0.00214805 0.0015288 -0.00188969 0.00225788 0.00157899 -0.000488374 0.00240773 0.00235023 -0.0105798 0.00369391 0.00317211 -0.00652979 0.00593642 0.00413107 -0.00654543 0.00586047 0.00605396 -0.0019534 0.00430319 0.0036524 -0.00162202 0.00673987 0.0122177 -0.000412717 0.00551297 0.00791521 -0.00112843 0.00271482 0.00232071 -0.000970868 0.00673124 0.0121458 -0.012138 0.00192042 0.001167 -0.00133604 0.00287953 0.00240039 -0.000454394 0.00564482 0.00807202 -0.00391045 0.00640019 0.00973831 -0.000270162 0.00426329 0.00570329 -0.00537282 0.00598664 0.00279674 -0.00400941 0.00605332 0.00543205 -0.00155429 0.00496256 0.00535509 -0.0045214 0.00592675 0.00305223 -0.00908274 0.00535325 0.00154991 -0.00713688 0.00551801 0.00828869 -0.00966519 0.00366385 0.00692609 -0.00160785 0.00330372 0.00303035 -0.0107206 0.00229543 0.00566694 -0.0103816 0.00443936 0.00170304 -0.0107581 0.00375368 0.00240529 -0.000282843 0.00471113 0.00627402 -0.000729668 0.00638743 0.0097285 -0.00540809 0.0060774 0.00595696 -0.00271706 0.00614359 0.00737639 -0.000903431 0.00467183 0.00560616 -0.00187717 0.00365159 0.00297676 -0.0034464 0.00593574 0.00476515 -0.00734155 0.00584263 0.00276797 -0.00729185 0.00552981 0.0069224 -0.00239588 0.00398717 0.00244042 -0.000592475 0.00604965 0.00884408 -0.00091354 0.00396681 0.00478019 -0.00862758 0.00482357 0.00619995 
</DataArray>
</Points>
</Piece>
</UnstructuredGrid>
</VTKFile>
