<?xml version="1.0"?>
<VTKFile type="UnstructuredGrid" version="0.1" byte_order="LittleEndian">
<UnstructuredGrid>
<Piece NumberOfPoints="18" NumberOfCells="18">
<PointData Vectors="Particles">
<DataArray type="Float32" Name="Mass" NumberOfComponents="1" >
1.41117e-08 1.41117e-08 1.41117e-08 1.41117e-08 1.41117e-08 1.41117e-08 1.41117e-08 1.41117e-08 1.41117e-08 1.41117e-08 1.41117e-08 1.41117e-08 1.41117e-08 1.41117e-08 1.41117e-08 1.41117e-08 1.41117e-08 1.41117e-08 
</DataArray>
<DataArray type="Float32" Name="Radius" NumberOfComponents="1" >
0.00015 0.00015 0.00015 0.00015 0.00015 0.00015 0.00015 0.00015 0.00015 0.00015 0.00015 0.00015 0.00015 0.00015 0.00015 0.00015 0.00015 0.00015 
</DataArray>
<DataArray type="Float32" Name="Velocity" NumberOfComponents="3" >
-0.00347908 -9.28552e-05 -0.00669362 0 0 0 -0.0108825 0.000306136 -0.018697 -0.0027351 8.10723e-05 -0.00501872 -0.00405001 -0.0002038 -0.00783777 -0.00250604 -5.79276e-05 -0.00470129 0 0 0 -0.00298478 -8.8774e-05 -0.00559144 -0.0079639 9.0247e-06 -0.0140033 -0.0143747 0.000208256 -0.024595 -0.00980956 0.000175506 -0.0170401 -0.0044175 -0.000222837 -0.00829488 -0.00453317 4.25897e-05 -0.00811804 0 0 0 -0.00695932 -2.64102e-05 -0.0123145 -0.00531593 -0.000212161 -0.00973466 -0.00265994 -5.08029e-05 -0.00497975 -0.00442814 -0.00014615 -0.00814046 
</DataArray>
<DataArray type="Float32" Name="Force" NumberOfComponents="3" >
2.65164e-11 -1.60359e-12 4.17964e-11 7.53889e-11 -2.34562e-12 1.73483e-10 5.26221e-11 -1.51763e-11 1.0404e-10 5.26424e-11 -6.95207e-12 1.06548e-10 3.63627e-11 -9.77283e-12 5.1025e-11 3.80211e-11 -2.80861e-12 7.75481e-11 1.69864e-10 -6.38942e-12 3.88687e-10 3.54334e-11 -5.26071e-12 6.98748e-11 6.01843e-11 -2.37895e-11 1.13033e-10 2.89442e-11 -1.72601e-11 6.3984e-11 5.89245e-11 -1.67942e-11 1.08386e-10 4.38902e-11 -1.28416e-11 6.8445e-11 5.05321e-11 -3.54816e-12 1.01242e-10 1.39472e-10 -7.90463e-12 3.18419e-10 6.12668e-11 -2.06392e-11 1.1415e-10 4.89743e-11 -1.39836e-11 8.77268e-11 4.24369e-11 -3.96051e-12 8.43309e-11 5.67481e-11 -1.03127e-11 1.02515e-10 
</DataArray>
<DataArray type="Float32" Name="Active" NumberOfComponents="1" >
1 0 1 1 1 1 0 1 1 1 1 1 1 0 1 1 1 1 
</DataArray>
</PointData>
<CellData /> 
<Cells>
<DataArray type="Int32" Name="connectivity" format="ascii">
0 1 2 3 4 5 6 7 8 9 10 11 12 13 14 15 16 17 </DataArray>
<DataArray type="Int32" Name="offsets" format="ascii">
1 2 3 4 5 6 7 8 9 10 11 12 13 14 15 16 17 18 </DataArray>
<DataArray type="UInt8" Name="types" format="ascii">
1 1 1 1 1 1 1 1 1 1 1 1 1 1 1 1 1 1 </DataArray>
</Cells>
<Points>
<DataArray type="Float32" Name="Position" NumberOfComponents="3" >
-0.0152171 0.000938287 -0.0217713 -0.0131591 0.00106719 -0.0185692 -0.0142038 0.00472751 -0.0129659 -0.0116843 0.00363871 -0.0142068 -0.0154487 0.00155002 -0.0217367 -0.0137446 0.00185762 -0.019181 -0.0112265 0.00182974 -0.0148993 -0.0140397 0.00203824 -0.0194035 -0.0150814 0.00401406 -0.0172414 -0.015529 0.00437705 -0.0134564 -0.0149068 0.00443761 -0.0153778 -0.0151771 0.0022928 -0.0206494 -0.0131581 0.00374767 -0.0158264 -0.0104254 0.00294795 -0.0127883 -0.014866 0.00384464 -0.0175566 -0.015259 0.00286182 -0.0199485 -0.0132038 0.00254791 -0.0178057 -0.0146366 0.00278031 -0.0193096 
</DataArray>
</Points>
</Piece>
</UnstructuredGrid>
</VTKFile>
