<?xml version="1.0"?>
<VTKFile type="UnstructuredGrid" version="0.1" byte_order="LittleEndian">
<UnstructuredGrid>
<Piece NumberOfPoints="75" NumberOfCells="75">
<PointData Vectors="Particles">
<DataArray type="Float32" Name="Mass" NumberOfComponents="1" >
1.41117e-08 1.41117e-08 1.41117e-08 1.41117e-08 1.41117e-08 1.41117e-08 1.41117e-08 1.41117e-08 1.41117e-08 1.41117e-08 1.41117e-08 1.41117e-08 1.41117e-08 1.41117e-08 1.41117e-08 1.41117e-08 1.41117e-08 1.41117e-08 1.41117e-08 1.41117e-08 1.41117e-08 1.41117e-08 1.41117e-08 1.41117e-08 1.41117e-08 1.41117e-08 1.41117e-08 1.41117e-08 1.41117e-08 1.41117e-08 1.41117e-08 1.41117e-08 1.41117e-08 1.41117e-08 1.41117e-08 1.41117e-08 1.41117e-08 1.41117e-08 1.41117e-08 1.41117e-08 1.41117e-08 1.41117e-08 1.41117e-08 1.41117e-08 1.41117e-08 1.41117e-08 1.41117e-08 1.41117e-08 1.41117e-08 1.41117e-08 1.41117e-08 1.41117e-08 1.41117e-08 1.41117e-08 1.41117e-08 1.41117e-08 1.41117e-08 1.41117e-08 1.41117e-08 1.41117e-08 1.41117e-08 1.41117e-08 1.41117e-08 1.41117e-08 1.41117e-08 1.41117e-08 1.41117e-08 1.41117e-08 1.41117e-08 1.41117e-08 1.41117e-08 1.41117e-08 1.41117e-08 1.41117e-08 1.41117e-08 
</DataArray>
<DataArray type="Float32" Name="Radius" NumberOfComponents="1" >
0.00015 0.00015 0.00015 0.00015 0.00015 0.00015 0.00015 0.00015 0.00015 0.00015 0.00015 0.00015 0.00015 0.00015 0.00015 0.00015 0.00015 0.00015 0.00015 0.00015 0.00015 0.00015 0.00015 0.00015 0.00015 0.00015 0.00015 0.00015 0.00015 0.00015 0.00015 0.00015 0.00015 0.00015 0.00015 0.00015 0.00015 0.00015 0.00015 0.00015 0.00015 0.00015 0.00015 0.00015 0.00015 0.00015 0.00015 0.00015 0.00015 0.00015 0.00015 0.00015 0.00015 0.00015 0.00015 0.00015 0.00015 0.00015 0.00015 0.00015 0.00015 0.00015 0.00015 0.00015 0.00015 0.00015 0.00015 0.00015 0.00015 0.00015 0.00015 0.00015 0.00015 0.00015 0.00015 
</DataArray>
<DataArray type="Float32" Name="Velocity" NumberOfComponents="3" >
-7.42105e-05 0.000305077 -0.044191 0.000476301 0.000302069 -0.0449367 -6.23996e-08 0.000332061 -0.0450014 0.000899078 -2.39741e-05 -0.0459586 0.000553022 0.000316584 -0.0457161 0.000817972 0.00024122 -0.046272 0.000281366 2.95037e-05 -0.0365405 7.77054e-05 8.69786e-05 -0.0361653 4.23732e-05 8.79747e-05 -0.0361411 0.000299957 5.49109e-05 -0.0368811 6.5559e-05 9.3597e-05 -0.036526 0.000285672 0.00010854 -0.0371881 0.000314378 9.55275e-06 -0.0372545 0.000315992 9.00427e-06 -0.0372813 0.00029196 0.000117456 -0.0374078 0.000295882 0.000111492 -0.0374006 0.000105161 0.000103231 -0.0370172 0.000315017 0.00010192 -0.0376516 5.48119e-05 0.000105942 -0.0371152 0.00033719 7.81925e-05 -0.0377864 0.000243804 0.000115009 -0.0375042 0.000158505 0.000113402 -0.037409 0.000352081 9.73801e-07 -0.0379056 0.000209247 0.000122329 -0.0378131 0.00037653 1.24434e-05 -0.0384115 0.000362746 0.000104056 -0.038533 0.000312408 0.00013019 -0.0383495 0.000146214 0.000126271 -0.0380242 9.89787e-05 0.000126522 -0.0380526 0.000377947 0.000100425 -0.0387604 4.9869e-05 0.000141747 -0.0386359 0.000429309 8.82852e-05 -0.0394558 0.00034874 0.000144824 -0.0391418 0.000448213 -1.68567e-05 -0.0394369 0.000303739 0.000150131 -0.0392826 0.000454934 -2.49585e-05 -0.0395158 0.000233567 0.000153403 -0.0391996 9.44382e-05 0.00015721 -0.0392618 0.000442608 0.000129914 -0.0399042 0.000125546 0.000168875 -0.0397079 0.000541222 -7.09567e-05 -0.0408277 0.000547952 2.11735e-05 -0.0412423 0.000521458 0.000157417 -0.0413176 0.000554633 8.95443e-05 -0.0413874 0.00055576 8.09981e-05 -0.0414084 -4.03257e-05 0.000191164 -0.0405286 7.77043e-05 0.000198642 -0.0407334 9.75903e-05 0.000205488 -0.0409733 0.000594411 0.000100553 -0.0419807 0.000612436 -5.23086e-05 -0.0419297 0.000569501 0.00017909 -0.0422896 0.000644976 -7.23122e-05 -0.0424046 0.000645129 -9.46382e-06 -0.042558 0.000644045 6.60896e-05 -0.0426666 0.000640176 0.000135445 -0.0427359 0.000617926 0.000184045 -0.042923 0.000681617 7.97059e-05 -0.043206 0.000142693 0.000249015 -0.0424588 4.76575e-05 0.000256967 -0.0426445 0.000429559 0.000245552 -0.0429847 0.000137662 0.000261295 -0.0428775 0.00025976 0.000267717 -0.0431933 5.37328e-05 0.000277926 -0.0433193 0.000763013 9.1054e-05 -0.0443256 0.000658584 0.000227601 -0.0441057 0.000756411 0.000151332 -0.044479 0.000737899 0.000171768 -0.0444526 0.000143923 0.000284302 -0.0436044 0.00077789 8.14891e-05 -0.0445147 0.000771732 0.000139363 -0.0445455 0.000575635 0.000266461 -0.044363 0.000529445 0.000273389 -0.0441934 0.000801518 0.000152687 -0.0450976 0.000793024 0.000167291 -0.0451407 6.36012e-05 0.000304325 -0.0441043 
</DataArray>
<DataArray type="Float32" Name="Force" NumberOfComponents="3" >
-5.67361e-12 2.67305e-11 1.14618e-10 3.3503e-11 2.45707e-11 1.00642e-10 -2.11285e-13 2.66094e-11 1.25995e-10 6.20986e-11 1.28046e-12 4.024e-11 3.83202e-11 2.51198e-11 1.03025e-10 5.66699e-11 1.77651e-11 7.15813e-11 2.13645e-11 6.12278e-13 -9.77768e-12 3.19621e-12 1.19246e-11 4.03159e-11 1.08178e-12 1.20066e-11 4.24999e-11 2.30242e-11 2.01284e-12 -7.19992e-12 2.7048e-12 1.27879e-11 4.25694e-11 2.4931e-11 8.40049e-12 2.79921e-12 2.50979e-11 -7.06508e-13 -8.93958e-12 2.52505e-11 -7.35874e-13 -8.82435e-12 2.52568e-11 1.01652e-11 7.50237e-12 2.58017e-11 8.88741e-12 4.02702e-12 6.22875e-12 1.32773e-11 4.42186e-11 2.73716e-11 6.7269e-12 -1.25823e-12 2.23856e-12 1.41025e-11 4.7884e-11 2.85957e-11 3.19224e-12 -4.07234e-12 2.21338e-11 1.18231e-11 3.17374e-11 1.21974e-11 1.3516e-11 4.30755e-11 2.85837e-11 -8.58793e-13 -6.54102e-12 1.79666e-11 1.34373e-11 4.06957e-11 3.18669e-11 4.30218e-13 -5.80405e-12 3.20452e-11 6.92904e-12 9.31161e-13 2.77854e-11 1.26948e-11 2.76634e-11 1.02453e-11 1.5301e-11 5.13337e-11 5.90231e-12 1.54802e-11 5.30569e-11 3.35654e-11 6.47099e-12 9.08201e-13 1.5246e-12 1.64682e-11 6.09018e-11 3.73109e-11 5.50095e-12 1.42341e-12 3.00721e-11 1.37967e-11 3.34488e-11 3.62566e-11 -2.36717e-12 -2.23773e-12 2.50535e-11 1.56919e-11 4.44413e-11 3.63032e-11 -2.96713e-12 -1.96553e-12 1.81276e-11 1.67067e-11 5.37741e-11 5.46925e-12 1.74039e-11 6.41321e-11 3.83068e-11 9.34638e-12 1.38452e-11 8.27641e-12 1.8073e-11 6.67693e-11 4.17226e-11 -4.21272e-12 4.51842e-12 4.50835e-11 9.03086e-13 2.04954e-12 4.37428e-11 1.20473e-11 2.4372e-11 4.4348e-11 5.88012e-12 1.11638e-11 4.44923e-11 5.26155e-12 1.06326e-11 -4.39115e-12 1.96584e-11 7.8309e-11 5.01445e-12 2.02443e-11 7.91351e-11 6.81858e-12 2.07289e-11 8.0599e-11 4.703e-11 8.42305e-12 1.51432e-11 4.65542e-11 -2.00379e-12 6.92497e-12 4.45506e-11 1.45103e-11 3.27883e-11 4.84279e-11 -2.70653e-12 1.1809e-11 4.89568e-11 1.3781e-12 1.04726e-11 4.94324e-11 6.58381e-12 1.48028e-11 4.90111e-11 1.10086e-11 2.54101e-11 4.71573e-11 1.46042e-11 3.48376e-11 5.11374e-11 7.78648e-12 1.9451e-11 1.03759e-11 2.28307e-11 9.24677e-11 2.73187e-12 2.42743e-11 9.95548e-11 3.12263e-11 2.18952e-11 7.76611e-11 1.00498e-11 2.43029e-11 9.67752e-11 1.94685e-11 2.41994e-11 9.59251e-11 3.47667e-12 2.66594e-11 1.06086e-10 5.5317e-11 8.5213e-12 2.88849e-11 4.85173e-11 1.79042e-11 5.72674e-11 5.50125e-11 1.25378e-11 3.74913e-11 5.39591e-11 1.37527e-11 3.83236e-11 1.05684e-11 2.61839e-11 1.05686e-10 5.60617e-11 7.94429e-12 2.92068e-11 5.58593e-11 1.18277e-11 3.58492e-11 4.19037e-11 2.1676e-11 7.70868e-11 3.80094e-11 2.25701e-11 8.56736e-11 5.74134e-11 1.29272e-11 4.0178e-11 5.69155e-11 1.37918e-11 4.11228e-11 4.8836e-12 2.75709e-11 1.15465e-10 
</DataArray>
<DataArray type="Float32" Name="Active" NumberOfComponents="1" >
1 1 1 1 1 1 1 1 1 1 1 1 1 1 1 1 1 1 1 1 1 1 1 1 1 1 1 1 1 1 1 1 1 1 1 1 1 1 1 1 1 1 1 1 1 1 1 1 1 1 1 1 1 1 1 1 1 1 1 1 1 1 1 1 1 1 1 1 1 1 1 1 1 1 1 
</DataArray>
</PointData>
<CellData /> 
<Cells>
<DataArray type="Int32" Name="connectivity" format="ascii">
0 1 2 3 4 5 6 7 8 9 10 11 12 13 14 15 16 17 18 19 20 21 22 23 24 25 26 27 28 29 30 31 32 33 34 35 36 37 38 39 40 41 42 43 44 45 46 47 48 49 50 51 52 53 54 55 56 57 58 59 60 61 62 63 64 65 66 67 68 69 70 71 72 73 74 </DataArray>
<DataArray type="Int32" Name="offsets" format="ascii">
1 2 3 4 5 6 7 8 9 10 11 12 13 14 15 16 17 18 19 20 21 22 23 24 25 26 27 28 29 30 31 32 33 34 35 36 37 38 39 40 41 42 43 44 45 46 47 48 49 50 51 52 53 54 55 56 57 58 59 60 61 62 63 64 65 66 67 68 69 70 71 72 73 74 75 </DataArray>
<DataArray type="UInt8" Name="types" format="ascii">
1 1 1 1 1 1 1 1 1 1 1 1 1 1 1 1 1 1 1 1 1 1 1 1 1 1 1 1 1 1 1 1 1 1 1 1 1 1 1 1 1 1 1 1 1 1 1 1 1 1 1 1 1 1 1 1 1 1 1 1 1 1 1 1 1 1 1 1 1 1 1 1 1 1 1 </DataArray>
</Cells>
<Points>
<DataArray type="Float32" Name="Position" NumberOfComponents="3" >
-0.000251524 -0.00476901 0.0278794 0.00210651 -0.00420749 0.0272899 6.26214e-05 -0.00461226 0.0269407 0.00482345 0.000110487 0.026822 0.00230111 -0.00398097 0.0265288 0.00374806 -0.0027175 0.0263492 0.00604305 -0.00112529 0.0368563 0.000837664 -0.00607559 0.0367211 0.000393702 -0.00613175 0.0366805 0.00588543 -0.00164237 0.0364864 0.000665319 -0.00604637 0.03634 0.00487643 -0.00355034 0.0361928 0.00603743 -0.000655683 0.0360977 0.00603491 -0.000641338 0.0360668 0.00461123 -0.00387684 0.0359608 0.00483601 -0.00355977 0.035962 0.00109242 -0.00590961 0.0358305 0.0052374 -0.00292868 0.035772 0.000509311 -0.00597474 0.0356948 0.005612 -0.00211635 0.0356296 0.00297388 -0.00516426 0.0355049 0.00170369 -0.00569533 0.035435 0.00596853 -0.000444343 0.0353864 0.00223096 -0.00546244 0.0350617 0.00589309 -0.000676343 0.0348832 0.00520285 -0.00273274 0.0348726 0.00365561 -0.00457053 0.0347628 0.00138054 -0.00570178 0.0347226 0.000905769 -0.00577061 0.0346945 0.00524092 -0.00258281 0.0346424 0.000415494 -0.00574304 0.0340118 0.00534818 -0.00214479 0.0339146 0.00353698 -0.00452558 0.0339042 0.00579481 -0.000136271 0.033762 0.00276191 -0.00499506 0.0336542 0.00579221 -3.5963e-06 0.0336672 0.0020055 -0.00531592 0.033525 0.000766026 -0.00559393 0.0333448 0.00485311 -0.00296908 0.0333419 0.000971167 -0.00549356 0.0328667 0.00557787 0.000697993 0.0323189 0.00551723 -0.00075377 0.032083 0.00451225 -0.00311279 0.0318938 0.00519451 -0.0018433 0.0318709 0.00523178 -0.00170452 0.0318685 -0.000212914 -0.0054303 0.0318844 0.000552362 -0.00537983 0.0316711 0.000665511 -0.00532514 0.0314168 0.00507246 -0.0019006 0.0312071 0.00546302 0.000364245 0.0311926 0.00420844 -0.00321953 0.0307915 0.00534194 0.000649977 0.0306541 0.00534727 -0.00022917 0.030617 0.00515515 -0.00127255 0.0305191 0.00477548 -0.0022482 0.0303415 0.00425184 -0.00302532 0.0301235 0.00504278 -0.00136716 0.0299198 0.000807133 -0.00505795 0.0298523 0.000305852 -0.0050903 0.0295545 0.00236479 -0.00450563 0.0295483 0.000748011 -0.00499442 0.0294231 0.00132124 -0.00484173 0.0291326 0.000318299 -0.00497149 0.028876 0.00487543 -0.00132354 0.0286776 0.00370486 -0.00332767 0.028663 0.00457997 -0.00206064 0.0285417 0.00439507 -0.00236137 0.0285611 0.00072318 -0.00484944 0.0286015 0.00488624 -0.00117937 0.0284765 0.0046722 -0.00186913 0.0284252 0.00291538 -0.00392368 0.028228 0.00260584 -0.00413801 0.0281904 0.00453978 -0.0019284 0.0278884 0.0044096 -0.00211397 0.0278162 0.00033782 -0.00480301 0.0279761 
</DataArray>
</Points>
</Piece>
</UnstructuredGrid>
</VTKFile>
